 TITLE = "Total Concentrations (log mol/kgw)" 
VARIABLES = "X"          "Y"              "Z"            "Br-"           
 ZONE I=         100 , J=          20 , K=           1  F=POINT
   5.00000000E-02   5.00000000E-02   5.00000000E-01  -9.99999986E-01
   1.50000000E-01   5.00000000E-02   5.00000000E-01  -9.99999986E-01
   2.50000000E-01   5.00000000E-02   5.00000000E-01  -9.99999986E-01
   3.50000000E-01   5.00000000E-02   5.00000000E-01  -9.99999986E-01
   4.50000000E-01   5.00000000E-02   5.00000000E-01  -9.99999986E-01
   5.50000000E-01   5.00000000E-02   5.00000000E-01  -9.99999986E-01
   6.50000000E-01   5.00000000E-02   5.00000000E-01  -9.99999986E-01
   7.50000000E-01   5.00000000E-02   5.00000000E-01  -9.99999987E-01
   8.50000000E-01   5.00000000E-02   5.00000000E-01  -9.99999987E-01
   9.50000000E-01   5.00000000E-02   5.00000000E-01  -9.99999987E-01
   1.05000000E+00   5.00000000E-02   5.00000000E-01  -9.99999988E-01
   1.15000000E+00   5.00000000E-02   5.00000000E-01  -9.99999989E-01
   1.25000000E+00   5.00000000E-02   5.00000000E-01  -9.99999990E-01
   1.35000000E+00   5.00000000E-02   5.00000000E-01  -9.99999991E-01
   1.45000000E+00   5.00000000E-02   5.00000000E-01  -9.99999993E-01
   1.55000000E+00   5.00000000E-02   5.00000000E-01  -9.99999996E-01
   1.65000000E+00   5.00000000E-02   5.00000000E-01  -9.99999999E-01
   1.75000000E+00   5.00000000E-02   5.00000000E-01  -1.00000000E+00
   1.85000000E+00   5.00000000E-02   5.00000000E-01  -1.00000001E+00
   1.95000000E+00   5.00000000E-02   5.00000000E-01  -1.00000002E+00
   2.05000000E+00   5.00000000E-02   5.00000000E-01  -1.00000003E+00
   2.15000000E+00   5.00000000E-02   5.00000000E-01  -1.00000005E+00
   2.25000000E+00   5.00000000E-02   5.00000000E-01  -1.00000007E+00
   2.35000000E+00   5.00000000E-02   5.00000000E-01  -1.00000009E+00
   2.45000000E+00   5.00000000E-02   5.00000000E-01  -1.00000012E+00
   2.55000000E+00   5.00000000E-02   5.00000000E-01  -1.00000017E+00
   2.65000000E+00   5.00000000E-02   5.00000000E-01  -1.00000022E+00
   2.75000000E+00   5.00000000E-02   5.00000000E-01  -1.00000028E+00
   2.85000000E+00   5.00000000E-02   5.00000000E-01  -1.00000037E+00
   2.95000000E+00   5.00000000E-02   5.00000000E-01  -1.00000046E+00
   3.05000000E+00   5.00000000E-02   5.00000000E-01  -1.00000059E+00
   3.15000000E+00   5.00000000E-02   5.00000000E-01  -1.00000073E+00
   3.25000000E+00   5.00000000E-02   5.00000000E-01  -1.00000090E+00
   3.35000000E+00   5.00000000E-02   5.00000000E-01  -1.00000111E+00
   3.45000000E+00   5.00000000E-02   5.00000000E-01  -1.00000135E+00
   3.55000000E+00   5.00000000E-02   5.00000000E-01  -1.00000164E+00
   3.65000000E+00   5.00000000E-02   5.00000000E-01  -1.00000197E+00
   3.75000000E+00   5.00000000E-02   5.00000000E-01  -1.00000235E+00
   3.85000000E+00   5.00000000E-02   5.00000000E-01  -1.00000280E+00
   3.95000000E+00   5.00000000E-02   5.00000000E-01  -1.00000331E+00
   4.05000000E+00   5.00000000E-02   5.00000000E-01  -1.00000389E+00
   4.15000000E+00   5.00000000E-02   5.00000000E-01  -1.00000455E+00
   4.25000000E+00   5.00000000E-02   5.00000000E-01  -1.00000531E+00
   4.35000000E+00   5.00000000E-02   5.00000000E-01  -1.00000616E+00
   4.45000000E+00   5.00000000E-02   5.00000000E-01  -1.00000711E+00
   4.55000000E+00   5.00000000E-02   5.00000000E-01  -1.00000819E+00
   4.65000000E+00   5.00000000E-02   5.00000000E-01  -1.00000939E+00
   4.75000000E+00   5.00000000E-02   5.00000000E-01  -1.00001072E+00
   4.85000000E+00   5.00000000E-02   5.00000000E-01  -1.00001221E+00
   4.95000000E+00   5.00000000E-02   5.00000000E-01  -1.00001386E+00
   5.05000000E+00   5.00000000E-02   5.00000000E-01  -1.00001570E+00
   5.15000000E+00   5.00000000E-02   5.00000000E-01  -1.00001774E+00
   5.25000000E+00   5.00000000E-02   5.00000000E-01  -1.00002001E+00
   5.35000000E+00   5.00000000E-02   5.00000000E-01  -1.00002255E+00
   5.45000000E+00   5.00000000E-02   5.00000000E-01  -1.00002539E+00
   5.55000000E+00   5.00000000E-02   5.00000000E-01  -1.00002851E+00
   5.65000000E+00   5.00000000E-02   5.00000000E-01  -1.00003185E+00
   5.75000000E+00   5.00000000E-02   5.00000000E-01  -1.00003528E+00
   5.85000000E+00   5.00000000E-02   5.00000000E-01  -1.00003878E+00
   5.95000000E+00   5.00000000E-02   5.00000000E-01  -1.00004235E+00
   6.05000000E+00   5.00000000E-02   5.00000000E-01  -1.00004604E+00
   6.15000000E+00   5.00000000E-02   5.00000000E-01  -1.00004987E+00
   6.25000000E+00   5.00000000E-02   5.00000000E-01  -1.00005389E+00
   6.35000000E+00   5.00000000E-02   5.00000000E-01  -1.00005813E+00
   6.45000000E+00   5.00000000E-02   5.00000000E-01  -1.00006264E+00
   6.55000000E+00   5.00000000E-02   5.00000000E-01  -1.00006745E+00
   6.65000000E+00   5.00000000E-02   5.00000000E-01  -1.00007262E+00
   6.75000000E+00   5.00000000E-02   5.00000000E-01  -1.00007820E+00
   6.85000000E+00   5.00000000E-02   5.00000000E-01  -1.00008426E+00
   6.95000000E+00   5.00000000E-02   5.00000000E-01  -1.00009087E+00
   7.05000000E+00   5.00000000E-02   5.00000000E-01  -1.00009811E+00
   7.15000000E+00   5.00000000E-02   5.00000000E-01  -1.00010606E+00
   7.25000000E+00   5.00000000E-02   5.00000000E-01  -1.00011481E+00
   7.35000000E+00   5.00000000E-02   5.00000000E-01  -1.00012445E+00
   7.45000000E+00   5.00000000E-02   5.00000000E-01  -1.00013509E+00
   7.55000000E+00   5.00000000E-02   5.00000000E-01  -1.00014682E+00
   7.65000000E+00   5.00000000E-02   5.00000000E-01  -1.00015971E+00
   7.75000000E+00   5.00000000E-02   5.00000000E-01  -1.00017386E+00
   7.85000000E+00   5.00000000E-02   5.00000000E-01  -1.00018935E+00
   7.95000000E+00   5.00000000E-02   5.00000000E-01  -1.00020632E+00
   8.05000000E+00   5.00000000E-02   5.00000000E-01  -1.00022497E+00
   8.15000000E+00   5.00000000E-02   5.00000000E-01  -1.00024545E+00
   8.25000000E+00   5.00000000E-02   5.00000000E-01  -1.00026785E+00
   8.35000000E+00   5.00000000E-02   5.00000000E-01  -1.00029224E+00
   8.45000000E+00   5.00000000E-02   5.00000000E-01  -1.00031863E+00
   8.55000000E+00   5.00000000E-02   5.00000000E-01  -1.00034706E+00
   8.65000000E+00   5.00000000E-02   5.00000000E-01  -1.00037753E+00
   8.75000000E+00   5.00000000E-02   5.00000000E-01  -1.00041009E+00
   8.85000000E+00   5.00000000E-02   5.00000000E-01  -1.00044475E+00
   8.95000000E+00   5.00000000E-02   5.00000000E-01  -1.00048157E+00
   9.05000000E+00   5.00000000E-02   5.00000000E-01  -1.00052060E+00
   9.15000000E+00   5.00000000E-02   5.00000000E-01  -1.00056190E+00
   9.25000000E+00   5.00000000E-02   5.00000000E-01  -1.00060555E+00
   9.35000000E+00   5.00000000E-02   5.00000000E-01  -1.00065163E+00
   9.45000000E+00   5.00000000E-02   5.00000000E-01  -1.00070023E+00
   9.55000000E+00   5.00000000E-02   5.00000000E-01  -1.00075145E+00
   9.65000000E+00   5.00000000E-02   5.00000000E-01  -1.00080531E+00
   9.75000000E+00   5.00000000E-02   5.00000000E-01  -1.00086154E+00
   9.85000000E+00   5.00000000E-02   5.00000000E-01  -1.00091848E+00
   9.95000000E+00   5.00000000E-02   5.00000000E-01  -1.00096763E+00
   5.00000000E-02   1.50000000E-01   5.00000000E-01  -9.99999986E-01
   1.50000000E-01   1.50000000E-01   5.00000000E-01  -9.99999986E-01
   2.50000000E-01   1.50000000E-01   5.00000000E-01  -9.99999986E-01
   3.50000000E-01   1.50000000E-01   5.00000000E-01  -9.99999986E-01
   4.50000000E-01   1.50000000E-01   5.00000000E-01  -9.99999987E-01
   5.50000000E-01   1.50000000E-01   5.00000000E-01  -9.99999987E-01
   6.50000000E-01   1.50000000E-01   5.00000000E-01  -9.99999987E-01
   7.50000000E-01   1.50000000E-01   5.00000000E-01  -9.99999988E-01
   8.50000000E-01   1.50000000E-01   5.00000000E-01  -9.99999989E-01
   9.50000000E-01   1.50000000E-01   5.00000000E-01  -9.99999990E-01
   1.05000000E+00   1.50000000E-01   5.00000000E-01  -9.99999991E-01
   1.15000000E+00   1.50000000E-01   5.00000000E-01  -9.99999993E-01
   1.25000000E+00   1.50000000E-01   5.00000000E-01  -9.99999996E-01
   1.35000000E+00   1.50000000E-01   5.00000000E-01  -1.00000000E+00
   1.45000000E+00   1.50000000E-01   5.00000000E-01  -1.00000000E+00
   1.55000000E+00   1.50000000E-01   5.00000000E-01  -1.00000001E+00
   1.65000000E+00   1.50000000E-01   5.00000000E-01  -1.00000002E+00
   1.75000000E+00   1.50000000E-01   5.00000000E-01  -1.00000003E+00
   1.85000000E+00   1.50000000E-01   5.00000000E-01  -1.00000005E+00
   1.95000000E+00   1.50000000E-01   5.00000000E-01  -1.00000007E+00
   2.05000000E+00   1.50000000E-01   5.00000000E-01  -1.00000009E+00
   2.15000000E+00   1.50000000E-01   5.00000000E-01  -1.00000013E+00
   2.25000000E+00   1.50000000E-01   5.00000000E-01  -1.00000017E+00
   2.35000000E+00   1.50000000E-01   5.00000000E-01  -1.00000023E+00
   2.45000000E+00   1.50000000E-01   5.00000000E-01  -1.00000031E+00
   2.55000000E+00   1.50000000E-01   5.00000000E-01  -1.00000040E+00
   2.65000000E+00   1.50000000E-01   5.00000000E-01  -1.00000050E+00
   2.75000000E+00   1.50000000E-01   5.00000000E-01  -1.00000063E+00
   2.85000000E+00   1.50000000E-01   5.00000000E-01  -1.00000079E+00
   2.95000000E+00   1.50000000E-01   5.00000000E-01  -1.00000097E+00
   3.05000000E+00   1.50000000E-01   5.00000000E-01  -1.00000119E+00
   3.15000000E+00   1.50000000E-01   5.00000000E-01  -1.00000144E+00
   3.25000000E+00   1.50000000E-01   5.00000000E-01  -1.00000173E+00
   3.35000000E+00   1.50000000E-01   5.00000000E-01  -1.00000207E+00
   3.45000000E+00   1.50000000E-01   5.00000000E-01  -1.00000247E+00
   3.55000000E+00   1.50000000E-01   5.00000000E-01  -1.00000292E+00
   3.65000000E+00   1.50000000E-01   5.00000000E-01  -1.00000344E+00
   3.75000000E+00   1.50000000E-01   5.00000000E-01  -1.00000403E+00
   3.85000000E+00   1.50000000E-01   5.00000000E-01  -1.00000470E+00
   3.95000000E+00   1.50000000E-01   5.00000000E-01  -1.00000546E+00
   4.05000000E+00   1.50000000E-01   5.00000000E-01  -1.00000633E+00
   4.15000000E+00   1.50000000E-01   5.00000000E-01  -1.00000729E+00
   4.25000000E+00   1.50000000E-01   5.00000000E-01  -1.00000838E+00
   4.35000000E+00   1.50000000E-01   5.00000000E-01  -1.00000959E+00
   4.45000000E+00   1.50000000E-01   5.00000000E-01  -1.00001094E+00
   4.55000000E+00   1.50000000E-01   5.00000000E-01  -1.00001244E+00
   4.65000000E+00   1.50000000E-01   5.00000000E-01  -1.00001410E+00
   4.75000000E+00   1.50000000E-01   5.00000000E-01  -1.00001594E+00
   4.85000000E+00   1.50000000E-01   5.00000000E-01  -1.00001798E+00
   4.95000000E+00   1.50000000E-01   5.00000000E-01  -1.00002024E+00
   5.05000000E+00   1.50000000E-01   5.00000000E-01  -1.00002274E+00
   5.15000000E+00   1.50000000E-01   5.00000000E-01  -1.00002554E+00
   5.25000000E+00   1.50000000E-01   5.00000000E-01  -1.00002869E+00
   5.35000000E+00   1.50000000E-01   5.00000000E-01  -1.00003227E+00
   5.45000000E+00   1.50000000E-01   5.00000000E-01  -1.00003634E+00
   5.55000000E+00   1.50000000E-01   5.00000000E-01  -1.00004090E+00
   5.65000000E+00   1.50000000E-01   5.00000000E-01  -1.00004571E+00
   5.75000000E+00   1.50000000E-01   5.00000000E-01  -1.00005024E+00
   5.85000000E+00   1.50000000E-01   5.00000000E-01  -1.00005451E+00
   5.95000000E+00   1.50000000E-01   5.00000000E-01  -1.00005867E+00
   6.05000000E+00   1.50000000E-01   5.00000000E-01  -1.00006287E+00
   6.15000000E+00   1.50000000E-01   5.00000000E-01  -1.00006722E+00
   6.25000000E+00   1.50000000E-01   5.00000000E-01  -1.00007184E+00
   6.35000000E+00   1.50000000E-01   5.00000000E-01  -1.00007682E+00
   6.45000000E+00   1.50000000E-01   5.00000000E-01  -1.00008226E+00
   6.55000000E+00   1.50000000E-01   5.00000000E-01  -1.00008825E+00
   6.65000000E+00   1.50000000E-01   5.00000000E-01  -1.00009489E+00
   6.75000000E+00   1.50000000E-01   5.00000000E-01  -1.00010229E+00
   6.85000000E+00   1.50000000E-01   5.00000000E-01  -1.00011056E+00
   6.95000000E+00   1.50000000E-01   5.00000000E-01  -1.00011982E+00
   7.05000000E+00   1.50000000E-01   5.00000000E-01  -1.00013020E+00
   7.15000000E+00   1.50000000E-01   5.00000000E-01  -1.00014181E+00
   7.25000000E+00   1.50000000E-01   5.00000000E-01  -1.00015476E+00
   7.35000000E+00   1.50000000E-01   5.00000000E-01  -1.00016914E+00
   7.45000000E+00   1.50000000E-01   5.00000000E-01  -1.00018500E+00
   7.55000000E+00   1.50000000E-01   5.00000000E-01  -1.00020232E+00
   7.65000000E+00   1.50000000E-01   5.00000000E-01  -1.00022099E+00
   7.75000000E+00   1.50000000E-01   5.00000000E-01  -1.00024079E+00
   7.85000000E+00   1.50000000E-01   5.00000000E-01  -1.00026153E+00
   7.95000000E+00   1.50000000E-01   5.00000000E-01  -1.00028327E+00
   8.05000000E+00   1.50000000E-01   5.00000000E-01  -1.00030662E+00
   8.15000000E+00   1.50000000E-01   5.00000000E-01  -1.00033203E+00
   8.25000000E+00   1.50000000E-01   5.00000000E-01  -1.00035968E+00
   8.35000000E+00   1.50000000E-01   5.00000000E-01  -1.00038957E+00
   8.45000000E+00   1.50000000E-01   5.00000000E-01  -1.00042162E+00
   8.55000000E+00   1.50000000E-01   5.00000000E-01  -1.00045575E+00
   8.65000000E+00   1.50000000E-01   5.00000000E-01  -1.00049188E+00
   8.75000000E+00   1.50000000E-01   5.00000000E-01  -1.00052995E+00
   8.85000000E+00   1.50000000E-01   5.00000000E-01  -1.00056992E+00
   8.95000000E+00   1.50000000E-01   5.00000000E-01  -1.00061178E+00
   9.05000000E+00   1.50000000E-01   5.00000000E-01  -1.00065556E+00
   9.15000000E+00   1.50000000E-01   5.00000000E-01  -1.00070129E+00
   9.25000000E+00   1.50000000E-01   5.00000000E-01  -1.00074905E+00
   9.35000000E+00   1.50000000E-01   5.00000000E-01  -1.00079894E+00
   9.45000000E+00   1.50000000E-01   5.00000000E-01  -1.00085111E+00
   9.55000000E+00   1.50000000E-01   5.00000000E-01  -1.00090570E+00
   9.65000000E+00   1.50000000E-01   5.00000000E-01  -1.00096280E+00
   9.75000000E+00   1.50000000E-01   5.00000000E-01  -1.00102222E+00
   9.85000000E+00   1.50000000E-01   5.00000000E-01  -1.00108227E+00
   9.95000000E+00   1.50000000E-01   5.00000000E-01  -1.00113407E+00
   5.00000000E-02   2.50000000E-01   5.00000000E-01  -9.99999986E-01
   1.50000000E-01   2.50000000E-01   5.00000000E-01  -9.99999986E-01
   2.50000000E-01   2.50000000E-01   5.00000000E-01  -9.99999987E-01
   3.50000000E-01   2.50000000E-01   5.00000000E-01  -9.99999987E-01
   4.50000000E-01   2.50000000E-01   5.00000000E-01  -9.99999988E-01
   5.50000000E-01   2.50000000E-01   5.00000000E-01  -9.99999989E-01
   6.50000000E-01   2.50000000E-01   5.00000000E-01  -9.99999991E-01
   7.50000000E-01   2.50000000E-01   5.00000000E-01  -9.99999993E-01
   8.50000000E-01   2.50000000E-01   5.00000000E-01  -9.99999996E-01
   9.50000000E-01   2.50000000E-01   5.00000000E-01  -9.99999999E-01
   1.05000000E+00   2.50000000E-01   5.00000000E-01  -1.00000000E+00
   1.15000000E+00   2.50000000E-01   5.00000000E-01  -1.00000001E+00
   1.25000000E+00   2.50000000E-01   5.00000000E-01  -1.00000002E+00
   1.35000000E+00   2.50000000E-01   5.00000000E-01  -1.00000003E+00
   1.45000000E+00   2.50000000E-01   5.00000000E-01  -1.00000004E+00
   1.55000000E+00   2.50000000E-01   5.00000000E-01  -1.00000006E+00
   1.65000000E+00   2.50000000E-01   5.00000000E-01  -1.00000009E+00
   1.75000000E+00   2.50000000E-01   5.00000000E-01  -1.00000012E+00
   1.85000000E+00   2.50000000E-01   5.00000000E-01  -1.00000017E+00
   1.95000000E+00   2.50000000E-01   5.00000000E-01  -1.00000023E+00
   2.05000000E+00   2.50000000E-01   5.00000000E-01  -1.00000031E+00
   2.15000000E+00   2.50000000E-01   5.00000000E-01  -1.00000041E+00
   2.25000000E+00   2.50000000E-01   5.00000000E-01  -1.00000054E+00
   2.35000000E+00   2.50000000E-01   5.00000000E-01  -1.00000070E+00
   2.45000000E+00   2.50000000E-01   5.00000000E-01  -1.00000090E+00
   2.55000000E+00   2.50000000E-01   5.00000000E-01  -1.00000113E+00
   2.65000000E+00   2.50000000E-01   5.00000000E-01  -1.00000140E+00
   2.75000000E+00   2.50000000E-01   5.00000000E-01  -1.00000170E+00
   2.85000000E+00   2.50000000E-01   5.00000000E-01  -1.00000204E+00
   2.95000000E+00   2.50000000E-01   5.00000000E-01  -1.00000243E+00
   3.05000000E+00   2.50000000E-01   5.00000000E-01  -1.00000287E+00
   3.15000000E+00   2.50000000E-01   5.00000000E-01  -1.00000338E+00
   3.25000000E+00   2.50000000E-01   5.00000000E-01  -1.00000395E+00
   3.35000000E+00   2.50000000E-01   5.00000000E-01  -1.00000461E+00
   3.45000000E+00   2.50000000E-01   5.00000000E-01  -1.00000534E+00
   3.55000000E+00   2.50000000E-01   5.00000000E-01  -1.00000617E+00
   3.65000000E+00   2.50000000E-01   5.00000000E-01  -1.00000709E+00
   3.75000000E+00   2.50000000E-01   5.00000000E-01  -1.00000812E+00
   3.85000000E+00   2.50000000E-01   5.00000000E-01  -1.00000928E+00
   3.95000000E+00   2.50000000E-01   5.00000000E-01  -1.00001058E+00
   4.05000000E+00   2.50000000E-01   5.00000000E-01  -1.00001201E+00
   4.15000000E+00   2.50000000E-01   5.00000000E-01  -1.00001359E+00
   4.25000000E+00   2.50000000E-01   5.00000000E-01  -1.00001533E+00
   4.35000000E+00   2.50000000E-01   5.00000000E-01  -1.00001725E+00
   4.45000000E+00   2.50000000E-01   5.00000000E-01  -1.00001935E+00
   4.55000000E+00   2.50000000E-01   5.00000000E-01  -1.00002166E+00
   4.65000000E+00   2.50000000E-01   5.00000000E-01  -1.00002419E+00
   4.75000000E+00   2.50000000E-01   5.00000000E-01  -1.00002695E+00
   4.85000000E+00   2.50000000E-01   5.00000000E-01  -1.00002999E+00
   4.95000000E+00   2.50000000E-01   5.00000000E-01  -1.00003331E+00
   5.05000000E+00   2.50000000E-01   5.00000000E-01  -1.00003698E+00
   5.15000000E+00   2.50000000E-01   5.00000000E-01  -1.00004106E+00
   5.25000000E+00   2.50000000E-01   5.00000000E-01  -1.00004566E+00
   5.35000000E+00   2.50000000E-01   5.00000000E-01  -1.00005093E+00
   5.45000000E+00   2.50000000E-01   5.00000000E-01  -1.00005708E+00
   5.55000000E+00   2.50000000E-01   5.00000000E-01  -1.00006422E+00
   5.65000000E+00   2.50000000E-01   5.00000000E-01  -1.00007185E+00
   5.75000000E+00   2.50000000E-01   5.00000000E-01  -1.00007806E+00
   5.85000000E+00   2.50000000E-01   5.00000000E-01  -1.00008351E+00
   5.95000000E+00   2.50000000E-01   5.00000000E-01  -1.00008875E+00
   6.05000000E+00   2.50000000E-01   5.00000000E-01  -1.00009417E+00
   6.15000000E+00   2.50000000E-01   5.00000000E-01  -1.00010005E+00
   6.25000000E+00   2.50000000E-01   5.00000000E-01  -1.00010665E+00
   6.35000000E+00   2.50000000E-01   5.00000000E-01  -1.00011421E+00
   6.45000000E+00   2.50000000E-01   5.00000000E-01  -1.00012295E+00
   6.55000000E+00   2.50000000E-01   5.00000000E-01  -1.00013308E+00
   6.65000000E+00   2.50000000E-01   5.00000000E-01  -1.00014480E+00
   6.75000000E+00   2.50000000E-01   5.00000000E-01  -1.00015831E+00
   6.85000000E+00   2.50000000E-01   5.00000000E-01  -1.00017380E+00
   6.95000000E+00   2.50000000E-01   5.00000000E-01  -1.00019145E+00
   7.05000000E+00   2.50000000E-01   5.00000000E-01  -1.00021145E+00
   7.15000000E+00   2.50000000E-01   5.00000000E-01  -1.00023393E+00
   7.25000000E+00   2.50000000E-01   5.00000000E-01  -1.00025897E+00
   7.35000000E+00   2.50000000E-01   5.00000000E-01  -1.00028656E+00
   7.45000000E+00   2.50000000E-01   5.00000000E-01  -1.00031646E+00
   7.55000000E+00   2.50000000E-01   5.00000000E-01  -1.00034815E+00
   7.65000000E+00   2.50000000E-01   5.00000000E-01  -1.00038069E+00
   7.75000000E+00   2.50000000E-01   5.00000000E-01  -1.00041266E+00
   7.85000000E+00   2.50000000E-01   5.00000000E-01  -1.00044262E+00
   7.95000000E+00   2.50000000E-01   5.00000000E-01  -1.00047042E+00
   8.05000000E+00   2.50000000E-01   5.00000000E-01  -1.00049947E+00
   8.15000000E+00   2.50000000E-01   5.00000000E-01  -1.00053141E+00
   8.25000000E+00   2.50000000E-01   5.00000000E-01  -1.00056655E+00
   8.35000000E+00   2.50000000E-01   5.00000000E-01  -1.00060459E+00
   8.45000000E+00   2.50000000E-01   5.00000000E-01  -1.00064512E+00
   8.55000000E+00   2.50000000E-01   5.00000000E-01  -1.00068776E+00
   8.65000000E+00   2.50000000E-01   5.00000000E-01  -1.00073220E+00
   8.75000000E+00   2.50000000E-01   5.00000000E-01  -1.00077822E+00
   8.85000000E+00   2.50000000E-01   5.00000000E-01  -1.00082566E+00
   8.95000000E+00   2.50000000E-01   5.00000000E-01  -1.00087443E+00
   9.05000000E+00   2.50000000E-01   5.00000000E-01  -1.00092451E+00
   9.15000000E+00   2.50000000E-01   5.00000000E-01  -1.00097596E+00
   9.25000000E+00   2.50000000E-01   5.00000000E-01  -1.00102890E+00
   9.35000000E+00   2.50000000E-01   5.00000000E-01  -1.00108351E+00
   9.45000000E+00   2.50000000E-01   5.00000000E-01  -1.00114005E+00
   9.55000000E+00   2.50000000E-01   5.00000000E-01  -1.00119882E+00
   9.65000000E+00   2.50000000E-01   5.00000000E-01  -1.00126010E+00
   9.75000000E+00   2.50000000E-01   5.00000000E-01  -1.00132383E+00
   9.85000000E+00   2.50000000E-01   5.00000000E-01  -1.00138834E+00
   9.95000000E+00   2.50000000E-01   5.00000000E-01  -1.00144413E+00
   5.00000000E-02   3.50000000E-01   5.00000000E-01  -9.99999987E-01
   1.50000000E-01   3.50000000E-01   5.00000000E-01  -9.99999988E-01
   2.50000000E-01   3.50000000E-01   5.00000000E-01  -9.99999989E-01
   3.50000000E-01   3.50000000E-01   5.00000000E-01  -9.99999992E-01
   4.50000000E-01   3.50000000E-01   5.00000000E-01  -9.99999996E-01
   5.50000000E-01   3.50000000E-01   5.00000000E-01  -1.00000000E+00
   6.50000000E-01   3.50000000E-01   5.00000000E-01  -1.00000000E+00
   7.50000000E-01   3.50000000E-01   5.00000000E-01  -1.00000001E+00
   8.50000000E-01   3.50000000E-01   5.00000000E-01  -1.00000002E+00
   9.50000000E-01   3.50000000E-01   5.00000000E-01  -1.00000003E+00
   1.05000000E+00   3.50000000E-01   5.00000000E-01  -1.00000004E+00
   1.15000000E+00   3.50000000E-01   5.00000000E-01  -1.00000006E+00
   1.25000000E+00   3.50000000E-01   5.00000000E-01  -1.00000008E+00
   1.35000000E+00   3.50000000E-01   5.00000000E-01  -1.00000012E+00
   1.45000000E+00   3.50000000E-01   5.00000000E-01  -1.00000016E+00
   1.55000000E+00   3.50000000E-01   5.00000000E-01  -1.00000021E+00
   1.65000000E+00   3.50000000E-01   5.00000000E-01  -1.00000029E+00
   1.75000000E+00   3.50000000E-01   5.00000000E-01  -1.00000040E+00
   1.85000000E+00   3.50000000E-01   5.00000000E-01  -1.00000054E+00
   1.95000000E+00   3.50000000E-01   5.00000000E-01  -1.00000073E+00
   2.05000000E+00   3.50000000E-01   5.00000000E-01  -1.00000097E+00
   2.15000000E+00   3.50000000E-01   5.00000000E-01  -1.00000127E+00
   2.25000000E+00   3.50000000E-01   5.00000000E-01  -1.00000165E+00
   2.35000000E+00   3.50000000E-01   5.00000000E-01  -1.00000209E+00
   2.45000000E+00   3.50000000E-01   5.00000000E-01  -1.00000262E+00
   2.55000000E+00   3.50000000E-01   5.00000000E-01  -1.00000321E+00
   2.65000000E+00   3.50000000E-01   5.00000000E-01  -1.00000385E+00
   2.75000000E+00   3.50000000E-01   5.00000000E-01  -1.00000453E+00
   2.85000000E+00   3.50000000E-01   5.00000000E-01  -1.00000525E+00
   2.95000000E+00   3.50000000E-01   5.00000000E-01  -1.00000601E+00
   3.05000000E+00   3.50000000E-01   5.00000000E-01  -1.00000687E+00
   3.15000000E+00   3.50000000E-01   5.00000000E-01  -1.00000782E+00
   3.25000000E+00   3.50000000E-01   5.00000000E-01  -1.00000889E+00
   3.35000000E+00   3.50000000E-01   5.00000000E-01  -1.00001007E+00
   3.45000000E+00   3.50000000E-01   5.00000000E-01  -1.00001137E+00
   3.55000000E+00   3.50000000E-01   5.00000000E-01  -1.00001280E+00
   3.65000000E+00   3.50000000E-01   5.00000000E-01  -1.00001437E+00
   3.75000000E+00   3.50000000E-01   5.00000000E-01  -1.00001610E+00
   3.85000000E+00   3.50000000E-01   5.00000000E-01  -1.00001800E+00
   3.95000000E+00   3.50000000E-01   5.00000000E-01  -1.00002008E+00
   4.05000000E+00   3.50000000E-01   5.00000000E-01  -1.00002233E+00
   4.15000000E+00   3.50000000E-01   5.00000000E-01  -1.00002479E+00
   4.25000000E+00   3.50000000E-01   5.00000000E-01  -1.00002744E+00
   4.35000000E+00   3.50000000E-01   5.00000000E-01  -1.00003033E+00
   4.45000000E+00   3.50000000E-01   5.00000000E-01  -1.00003345E+00
   4.55000000E+00   3.50000000E-01   5.00000000E-01  -1.00003682E+00
   4.65000000E+00   3.50000000E-01   5.00000000E-01  -1.00004048E+00
   4.75000000E+00   3.50000000E-01   5.00000000E-01  -1.00004443E+00
   4.85000000E+00   3.50000000E-01   5.00000000E-01  -1.00004871E+00
   4.95000000E+00   3.50000000E-01   5.00000000E-01  -1.00005335E+00
   5.05000000E+00   3.50000000E-01   5.00000000E-01  -1.00005839E+00
   5.15000000E+00   3.50000000E-01   5.00000000E-01  -1.00006392E+00
   5.25000000E+00   3.50000000E-01   5.00000000E-01  -1.00007008E+00
   5.35000000E+00   3.50000000E-01   5.00000000E-01  -1.00007711E+00
   5.45000000E+00   3.50000000E-01   5.00000000E-01  -1.00008548E+00
   5.55000000E+00   3.50000000E-01   5.00000000E-01  -1.00009580E+00
   5.65000000E+00   3.50000000E-01   5.00000000E-01  -1.00010785E+00
   5.75000000E+00   3.50000000E-01   5.00000000E-01  -1.00011552E+00
   5.85000000E+00   3.50000000E-01   5.00000000E-01  -1.00012264E+00
   5.95000000E+00   3.50000000E-01   5.00000000E-01  -1.00013033E+00
   6.05000000E+00   3.50000000E-01   5.00000000E-01  -1.00013922E+00
   6.15000000E+00   3.50000000E-01   5.00000000E-01  -1.00014999E+00
   6.25000000E+00   3.50000000E-01   5.00000000E-01  -1.00016337E+00
   6.35000000E+00   3.50000000E-01   5.00000000E-01  -1.00017979E+00
   6.45000000E+00   3.50000000E-01   5.00000000E-01  -1.00019954E+00
   6.55000000E+00   3.50000000E-01   5.00000000E-01  -1.00022286E+00
   6.65000000E+00   3.50000000E-01   5.00000000E-01  -1.00024996E+00
   6.75000000E+00   3.50000000E-01   5.00000000E-01  -1.00028106E+00
   6.85000000E+00   3.50000000E-01   5.00000000E-01  -1.00031637E+00
   6.95000000E+00   3.50000000E-01   5.00000000E-01  -1.00035609E+00
   7.05000000E+00   3.50000000E-01   5.00000000E-01  -1.00040035E+00
   7.15000000E+00   3.50000000E-01   5.00000000E-01  -1.00044915E+00
   7.25000000E+00   3.50000000E-01   5.00000000E-01  -1.00050226E+00
   7.35000000E+00   3.50000000E-01   5.00000000E-01  -1.00055908E+00
   7.45000000E+00   3.50000000E-01   5.00000000E-01  -1.00061832E+00
   7.55000000E+00   3.50000000E-01   5.00000000E-01  -1.00067774E+00
   7.65000000E+00   3.50000000E-01   5.00000000E-01  -1.00073373E+00
   7.75000000E+00   3.50000000E-01   5.00000000E-01  -1.00078126E+00
   7.85000000E+00   3.50000000E-01   5.00000000E-01  -1.00081508E+00
   7.95000000E+00   3.50000000E-01   5.00000000E-01  -1.00083310E+00
   8.05000000E+00   3.50000000E-01   5.00000000E-01  -1.00085395E+00
   8.15000000E+00   3.50000000E-01   5.00000000E-01  -1.00088234E+00
   8.25000000E+00   3.50000000E-01   5.00000000E-01  -1.00091752E+00
   8.35000000E+00   3.50000000E-01   5.00000000E-01  -1.00095776E+00
   8.45000000E+00   3.50000000E-01   5.00000000E-01  -1.00100167E+00
   8.55000000E+00   3.50000000E-01   5.00000000E-01  -1.00104824E+00
   8.65000000E+00   3.50000000E-01   5.00000000E-01  -1.00109680E+00
   8.75000000E+00   3.50000000E-01   5.00000000E-01  -1.00114686E+00
   8.85000000E+00   3.50000000E-01   5.00000000E-01  -1.00119805E+00
   8.95000000E+00   3.50000000E-01   5.00000000E-01  -1.00125019E+00
   9.05000000E+00   3.50000000E-01   5.00000000E-01  -1.00130325E+00
   9.15000000E+00   3.50000000E-01   5.00000000E-01  -1.00135729E+00
   9.25000000E+00   3.50000000E-01   5.00000000E-01  -1.00141250E+00
   9.35000000E+00   3.50000000E-01   5.00000000E-01  -1.00146918E+00
   9.45000000E+00   3.50000000E-01   5.00000000E-01  -1.00152774E+00
   9.55000000E+00   3.50000000E-01   5.00000000E-01  -1.00158871E+00
   9.65000000E+00   3.50000000E-01   5.00000000E-01  -1.00165262E+00
   9.75000000E+00   3.50000000E-01   5.00000000E-01  -1.00171962E+00
   9.85000000E+00   3.50000000E-01   5.00000000E-01  -1.00178805E+00
   9.95000000E+00   3.50000000E-01   5.00000000E-01  -1.00184773E+00
   5.00000000E-02   4.50000000E-01   5.00000000E-01  -9.99999990E-01
   1.50000000E-01   4.50000000E-01   5.00000000E-01  -9.99999992E-01
   2.50000000E-01   4.50000000E-01   5.00000000E-01  -9.99999998E-01
   3.50000000E-01   4.50000000E-01   5.00000000E-01  -1.00000001E+00
   4.50000000E-01   4.50000000E-01   5.00000000E-01  -1.00000002E+00
   5.50000000E-01   4.50000000E-01   5.00000000E-01  -1.00000004E+00
   6.50000000E-01   4.50000000E-01   5.00000000E-01  -1.00000006E+00
   7.50000000E-01   4.50000000E-01   5.00000000E-01  -1.00000008E+00
   8.50000000E-01   4.50000000E-01   5.00000000E-01  -1.00000010E+00
   9.50000000E-01   4.50000000E-01   5.00000000E-01  -1.00000013E+00
   1.05000000E+00   4.50000000E-01   5.00000000E-01  -1.00000016E+00
   1.15000000E+00   4.50000000E-01   5.00000000E-01  -1.00000021E+00
   1.25000000E+00   4.50000000E-01   5.00000000E-01  -1.00000028E+00
   1.35000000E+00   4.50000000E-01   5.00000000E-01  -1.00000037E+00
   1.45000000E+00   4.50000000E-01   5.00000000E-01  -1.00000050E+00
   1.55000000E+00   4.50000000E-01   5.00000000E-01  -1.00000068E+00
   1.65000000E+00   4.50000000E-01   5.00000000E-01  -1.00000094E+00
   1.75000000E+00   4.50000000E-01   5.00000000E-01  -1.00000128E+00
   1.85000000E+00   4.50000000E-01   5.00000000E-01  -1.00000172E+00
   1.95000000E+00   4.50000000E-01   5.00000000E-01  -1.00000229E+00
   2.05000000E+00   4.50000000E-01   5.00000000E-01  -1.00000300E+00
   2.15000000E+00   4.50000000E-01   5.00000000E-01  -1.00000387E+00
   2.25000000E+00   4.50000000E-01   5.00000000E-01  -1.00000490E+00
   2.35000000E+00   4.50000000E-01   5.00000000E-01  -1.00000609E+00
   2.45000000E+00   4.50000000E-01   5.00000000E-01  -1.00000742E+00
   2.55000000E+00   4.50000000E-01   5.00000000E-01  -1.00000883E+00
   2.65000000E+00   4.50000000E-01   5.00000000E-01  -1.00001026E+00
   2.75000000E+00   4.50000000E-01   5.00000000E-01  -1.00001160E+00
   2.85000000E+00   4.50000000E-01   5.00000000E-01  -1.00001281E+00
   2.95000000E+00   4.50000000E-01   5.00000000E-01  -1.00001406E+00
   3.05000000E+00   4.50000000E-01   5.00000000E-01  -1.00001543E+00
   3.15000000E+00   4.50000000E-01   5.00000000E-01  -1.00001696E+00