 TITLE = "Total Concentrations (log mol/kgw)" 
VARIABLES = "X"          "Y"              "Z"            "Br-"           
 ZONE I=         100 , J=          20 , K=           1  F=POINT
   5.00000000E-02   5.00000000E-02   5.00000000E-01  -1.00002650E+00
   1.50000000E-01   5.00000000E-02   5.00000000E-01  -1.00007689E+00
   2.50000000E-01   5.00000000E-02   5.00000000E-01  -1.00017444E+00
   3.50000000E-01   5.00000000E-02   5.00000000E-01  -1.00034181E+00
   4.50000000E-01   5.00000000E-02   5.00000000E-01  -1.00060637E+00
   5.50000000E-01   5.00000000E-02   5.00000000E-01  -1.00100235E+00
   6.50000000E-01   5.00000000E-02   5.00000000E-01  -1.00157873E+00
   7.50000000E-01   5.00000000E-02   5.00000000E-01  -1.00241499E+00
   8.50000000E-01   5.00000000E-02   5.00000000E-01  -1.00362274E+00
   9.50000000E-01   5.00000000E-02   5.00000000E-01  -1.00535428E+00
   1.05000000E+00   5.00000000E-02   5.00000000E-01  -1.00781415E+00
   1.15000000E+00   5.00000000E-02   5.00000000E-01  -1.01126930E+00
   1.25000000E+00   5.00000000E-02   5.00000000E-01  -1.01605493E+00
   1.35000000E+00   5.00000000E-02   5.00000000E-01  -1.02257429E+00
   1.45000000E+00   5.00000000E-02   5.00000000E-01  -1.03129173E+00
   1.55000000E+00   5.00000000E-02   5.00000000E-01  -1.04271958E+00
   1.65000000E+00   5.00000000E-02   5.00000000E-01  -1.05740056E+00
   1.75000000E+00   5.00000000E-02   5.00000000E-01  -1.07588792E+00
   1.85000000E+00   5.00000000E-02   5.00000000E-01  -1.09872605E+00
   1.95000000E+00   5.00000000E-02   5.00000000E-01  -1.12643355E+00
   2.05000000E+00   5.00000000E-02   5.00000000E-01  -1.15949056E+00
   2.15000000E+00   5.00000000E-02   5.00000000E-01  -1.19833117E+00
   2.25000000E+00   5.00000000E-02   5.00000000E-01  -1.24334119E+00
   2.35000000E+00   5.00000000E-02   5.00000000E-01  -1.29486132E+00
   2.45000000E+00   5.00000000E-02   5.00000000E-01  -1.35319444E+00
   2.55000000E+00   5.00000000E-02   5.00000000E-01  -1.41861495E+00
   2.65000000E+00   5.00000000E-02   5.00000000E-01  -1.49137414E+00
   2.75000000E+00   5.00000000E-02   5.00000000E-01  -1.57169052E+00
   2.85000000E+00   5.00000000E-02   5.00000000E-01  -1.65970695E+00
   2.95000000E+00   5.00000000E-02   5.00000000E-01  -1.75539823E+00
   3.05000000E+00   5.00000000E-02   5.00000000E-01  -1.85844049E+00
   3.15000000E+00   5.00000000E-02   5.00000000E-01  -1.96810062E+00
   3.25000000E+00   5.00000000E-02   5.00000000E-01  -2.08315145E+00
   3.35000000E+00   5.00000000E-02   5.00000000E-01  -2.20179267E+00
   3.45000000E+00   5.00000000E-02   5.00000000E-01  -2.32157438E+00
   3.55000000E+00   5.00000000E-02   5.00000000E-01  -2.43936257E+00
   3.65000000E+00   5.00000000E-02   5.00000000E-01  -2.55143800E+00
   3.75000000E+00   5.00000000E-02   5.00000000E-01  -2.65384594E+00
   3.85000000E+00   5.00000000E-02   5.00000000E-01  -2.74302974E+00
   3.95000000E+00   5.00000000E-02   5.00000000E-01  -2.81662237E+00
   4.05000000E+00   5.00000000E-02   5.00000000E-01  -2.87402187E+00
   4.15000000E+00   5.00000000E-02   5.00000000E-01  -2.91640602E+00
   4.25000000E+00   5.00000000E-02   5.00000000E-01  -2.94618613E+00
   4.35000000E+00   5.00000000E-02   5.00000000E-01  -2.96623686E+00
   4.45000000E+00   5.00000000E-02   5.00000000E-01  -2.97926879E+00
   4.55000000E+00   5.00000000E-02   5.00000000E-01  -2.98749915E+00
   4.65000000E+00   5.00000000E-02   5.00000000E-01  -2.99257697E+00
   4.75000000E+00   5.00000000E-02   5.00000000E-01  -2.99564999E+00
   4.85000000E+00   5.00000000E-02   5.00000000E-01  -2.99747984E+00
   4.95000000E+00   5.00000000E-02   5.00000000E-01  -2.99855441E+00
   5.05000000E+00   5.00000000E-02   5.00000000E-01  -2.99917787E+00
   5.15000000E+00   5.00000000E-02   5.00000000E-01  -2.99953579E+00
   5.25000000E+00   5.00000000E-02   5.00000000E-01  -2.99973937E+00
   5.35000000E+00   5.00000000E-02   5.00000000E-01  -2.99985424E+00
   5.45000000E+00   5.00000000E-02   5.00000000E-01  -2.99991864E+00
   5.55000000E+00   5.00000000E-02   5.00000000E-01  -2.99995458E+00
   5.65000000E+00   5.00000000E-02   5.00000000E-01  -2.99997459E+00
   5.75000000E+00   5.00000000E-02   5.00000000E-01  -2.99998575E+00
   5.85000000E+00   5.00000000E-02   5.00000000E-01  -2.99999200E+00
   5.95000000E+00   5.00000000E-02   5.00000000E-01  -2.99999551E+00
   6.05000000E+00   5.00000000E-02   5.00000000E-01  -2.99999748E+00
   6.15000000E+00   5.00000000E-02   5.00000000E-01  -2.99999858E+00
   6.25000000E+00   5.00000000E-02   5.00000000E-01  -2.99999919E+00
   6.35000000E+00   5.00000000E-02   5.00000000E-01  -2.99999952E+00
   6.45000000E+00   5.00000000E-02   5.00000000E-01  -2.99999971E+00
   6.55000000E+00   5.00000000E-02   5.00000000E-01  -2.99999981E+00
   6.65000000E+00   5.00000000E-02   5.00000000E-01  -2.99999986E+00
   6.75000000E+00   5.00000000E-02   5.00000000E-01  -2.99999989E+00
   6.85000000E+00   5.00000000E-02   5.00000000E-01  -2.99999991E+00
   6.95000000E+00   5.00000000E-02   5.00000000E-01  -2.99999992E+00
   7.05000000E+00   5.00000000E-02   5.00000000E-01  -2.99999992E+00
   7.15000000E+00   5.00000000E-02   5.00000000E-01  -2.99999992E+00
   7.25000000E+00   5.00000000E-02   5.00000000E-01  -2.99999992E+00
   7.35000000E+00   5.00000000E-02   5.00000000E-01  -2.99999992E+00
   7.45000000E+00   5.00000000E-02   5.00000000E-01  -2.99999993E+00
   7.55000000E+00   5.00000000E-02   5.00000000E-01  -2.99999993E+00
   7.65000000E+00   5.00000000E-02   5.00000000E-01  -2.99999993E+00
   7.75000000E+00   5.00000000E-02   5.00000000E-01  -2.99999993E+00
   7.85000000E+00   5.00000000E-02   5.00000000E-01  -2.99999993E+00
   7.95000000E+00   5.00000000E-02   5.00000000E-01  -2.99999993E+00
   8.05000000E+00   5.00000000E-02   5.00000000E-01  -2.99999993E+00
   8.15000000E+00   5.00000000E-02   5.00000000E-01  -2.99999993E+00
   8.25000000E+00   5.00000000E-02   5.00000000E-01  -2.99999993E+00
   8.35000000E+00   5.00000000E-02   5.00000000E-01  -2.99999993E+00
   8.45000000E+00   5.00000000E-02   5.00000000E-01  -2.99999993E+00
   8.55000000E+00   5.00000000E-02   5.00000000E-01  -2.99999993E+00
   8.65000000E+00   5.00000000E-02   5.00000000E-01  -2.99999993E+00
   8.75000000E+00   5.00000000E-02   5.00000000E-01  -2.99999993E+00
   8.85000000E+00   5.00000000E-02   5.00000000E-01  -2.99999993E+00
   8.95000000E+00   5.00000000E-02   5.00000000E-01  -2.99999994E+00
   9.05000000E+00   5.00000000E-02   5.00000000E-01  -2.99999994E+00
   9.15000000E+00   5.00000000E-02   5.00000000E-01  -2.99999994E+00
   9.25000000E+00   5.00000000E-02   5.00000000E-01  -2.99999994E+00
   9.35000000E+00   5.00000000E-02   5.00000000E-01  -2.99999994E+00
   9.45000000E+00   5.00000000E-02   5.00000000E-01  -2.99999994E+00
   9.55000000E+00   5.00000000E-02   5.00000000E-01  -2.99999994E+00
   9.65000000E+00   5.00000000E-02   5.00000000E-01  -2.99999994E+00
   9.75000000E+00   5.00000000E-02   5.00000000E-01  -2.99999994E+00
   9.85000000E+00   5.00000000E-02   5.00000000E-01  -2.99999994E+00
   9.95000000E+00   5.00000000E-02   5.00000000E-01  -2.99999994E+00
   5.00000000E-02   1.50000000E-01   5.00000000E-01  -1.00012237E+00
   1.50000000E-01   1.50000000E-01   5.00000000E-01  -1.00032726E+00
   2.50000000E-01   1.50000000E-01   5.00000000E-01  -1.00067319E+00
   3.50000000E-01   1.50000000E-01   5.00000000E-01  -1.00119057E+00
   4.50000000E-01   1.50000000E-01   5.00000000E-01  -1.00189832E+00
   5.50000000E-01   1.50000000E-01   5.00000000E-01  -1.00280120E+00
   6.50000000E-01   1.50000000E-01   5.00000000E-01  -1.00391421E+00
   7.50000000E-01   1.50000000E-01   5.00000000E-01  -1.00534514E+00
   8.50000000E-01   1.50000000E-01   5.00000000E-01  -1.00721066E+00
   9.50000000E-01   1.50000000E-01   5.00000000E-01  -1.00965366E+00
   1.05000000E+00   1.50000000E-01   5.00000000E-01  -1.01286527E+00
   1.15000000E+00   1.50000000E-01   5.00000000E-01  -1.01709939E+00
   1.25000000E+00   1.50000000E-01   5.00000000E-01  -1.02267934E+00
   1.35000000E+00   1.50000000E-01   5.00000000E-01  -1.02999737E+00
   1.45000000E+00   1.50000000E-01   5.00000000E-01  -1.03950739E+00
   1.55000000E+00   1.50000000E-01   5.00000000E-01  -1.05171177E+00
   1.65000000E+00   1.50000000E-01   5.00000000E-01  -1.06714383E+00
   1.75000000E+00   1.50000000E-01   5.00000000E-01  -1.08634810E+00
   1.85000000E+00   1.50000000E-01   5.00000000E-01  -1.10986090E+00
   1.95000000E+00   1.50000000E-01   5.00000000E-01  -1.13819312E+00
   2.05000000E+00   1.50000000E-01   5.00000000E-01  -1.17181701E+00
   2.15000000E+00   1.50000000E-01   5.00000000E-01  -1.21115776E+00
   2.25000000E+00   1.50000000E-01   5.00000000E-01  -1.25659046E+00
   2.35000000E+00   1.50000000E-01   5.00000000E-01  -1.30844273E+00
   2.45000000E+00   1.50000000E-01   5.00000000E-01  -1.36700298E+00
   2.55000000E+00   1.50000000E-01   5.00000000E-01  -1.43253356E+00
   2.65000000E+00   1.50000000E-01   5.00000000E-01  -1.50528513E+00
   2.75000000E+00   1.50000000E-01   5.00000000E-01  -1.58550020E+00
   2.85000000E+00   1.50000000E-01   5.00000000E-01  -1.67337855E+00
   2.95000000E+00   1.50000000E-01   5.00000000E-01  -1.76896300E+00
   3.05000000E+00   1.50000000E-01   5.00000000E-01  -1.87194387E+00
   3.15000000E+00   1.50000000E-01   5.00000000E-01  -1.98154436E+00
   3.25000000E+00   1.50000000E-01   5.00000000E-01  -2.09646297E+00
   3.35000000E+00   1.50000000E-01   5.00000000E-01  -2.21481806E+00
   3.45000000E+00   1.50000000E-01   5.00000000E-01  -2.33408443E+00
   3.55000000E+00   1.50000000E-01   5.00000000E-01  -2.45106922E+00
   3.65000000E+00   1.50000000E-01   5.00000000E-01  -2.56202675E+00
   3.75000000E+00   1.50000000E-01   5.00000000E-01  -2.66303542E+00
   3.85000000E+00   1.50000000E-01   5.00000000E-01  -2.75062708E+00
   3.95000000E+00   1.50000000E-01   5.00000000E-01  -2.82257924E+00
   4.05000000E+00   1.50000000E-01   5.00000000E-01  -2.87845000E+00
   4.15000000E+00   1.50000000E-01   5.00000000E-01  -2.91953857E+00
   4.25000000E+00   1.50000000E-01   5.00000000E-01  -2.94830878E+00
   4.35000000E+00   1.50000000E-01   5.00000000E-01  -2.96762497E+00
   4.45000000E+00   1.50000000E-01   5.00000000E-01  -2.98015109E+00
   4.55000000E+00   1.50000000E-01   5.00000000E-01  -2.98804751E+00
   4.65000000E+00   1.50000000E-01   5.00000000E-01  -2.99291182E+00
   4.75000000E+00   1.50000000E-01   5.00000000E-01  -2.99585163E+00
   4.85000000E+00   1.50000000E-01   5.00000000E-01  -2.99759997E+00
   4.95000000E+00   1.50000000E-01   5.00000000E-01  -2.99862542E+00
   5.05000000E+00   1.50000000E-01   5.00000000E-01  -2.99921965E+00
   5.15000000E+00   1.50000000E-01   5.00000000E-01  -2.99956032E+00
   5.25000000E+00   1.50000000E-01   5.00000000E-01  -2.99975379E+00
   5.35000000E+00   1.50000000E-01   5.00000000E-01  -2.99986275E+00
   5.45000000E+00   1.50000000E-01   5.00000000E-01  -2.99992368E+00
   5.55000000E+00   1.50000000E-01   5.00000000E-01  -2.99995755E+00
   5.65000000E+00   1.50000000E-01   5.00000000E-01  -2.99997630E+00
   5.75000000E+00   1.50000000E-01   5.00000000E-01  -2.99998670E+00
   5.85000000E+00   1.50000000E-01   5.00000000E-01  -2.99999252E+00
   5.95000000E+00   1.50000000E-01   5.00000000E-01  -2.99999579E+00
   6.05000000E+00   1.50000000E-01   5.00000000E-01  -2.99999763E+00
   6.15000000E+00   1.50000000E-01   5.00000000E-01  -2.99999866E+00
   6.25000000E+00   1.50000000E-01   5.00000000E-01  -2.99999923E+00
   6.35000000E+00   1.50000000E-01   5.00000000E-01  -2.99999955E+00
   6.45000000E+00   1.50000000E-01   5.00000000E-01  -2.99999972E+00
   6.55000000E+00   1.50000000E-01   5.00000000E-01  -2.99999981E+00
   6.65000000E+00   1.50000000E-01   5.00000000E-01  -2.99999987E+00
   6.75000000E+00   1.50000000E-01   5.00000000E-01  -2.99999989E+00
   6.85000000E+00   1.50000000E-01   5.00000000E-01  -2.99999991E+00
   6.95000000E+00   1.50000000E-01   5.00000000E-01  -2.99999992E+00
   7.05000000E+00   1.50000000E-01   5.00000000E-01  -2.99999992E+00
   7.15000000E+00   1.50000000E-01   5.00000000E-01  -2.99999992E+00
   7.25000000E+00   1.50000000E-01   5.00000000E-01  -2.99999992E+00
   7.35000000E+00   1.50000000E-01   5.00000000E-01  -2.99999993E+00
   7.45000000E+00   1.50000000E-01   5.00000000E-01  -2.99999993E+00
   7.55000000E+00   1.50000000E-01   5.00000000E-01  -2.99999993E+00
   7.65000000E+00   1.50000000E-01   5.00000000E-01  -2.99999993E+00
   7.75000000E+00   1.50000000E-01   5.00000000E-01  -2.99999993E+00
   7.85000000E+00   1.50000000E-01   5.00000000E-01  -2.99999993E+00
   7.95000000E+00   1.50000000E-01   5.00000000E-01  -2.99999993E+00
   8.05000000E+00   1.50000000E-01   5.00000000E-01  -2.99999993E+00
   8.15000000E+00   1.50000000E-01   5.00000000E-01  -2.99999993E+00
   8.25000000E+00   1.50000000E-01   5.00000000E-01  -2.99999993E+00
   8.35000000E+00   1.50000000E-01   5.00000000E-01  -2.99999993E+00
   8.45000000E+00   1.50000000E-01   5.00000000E-01  -2.99999993E+00
   8.55000000E+00   1.50000000E-01   5.00000000E-01  -2.99999993E+00
   8.65000000E+00   1.50000000E-01   5.00000000E-01  -2.99999993E+00
   8.75000000E+00   1.50000000E-01   5.00000000E-01  -2.99999993E+00
   8.85000000E+00   1.50000000E-01   5.00000000E-01  -2.99999993E+00
   8.95000000E+00   1.50000000E-01   5.00000000E-01  -2.99999994E+00
   9.05000000E+00   1.50000000E-01   5.00000000E-01  -2.99999994E+00
   9.15000000E+00   1.50000000E-01   5.00000000E-01  -2.99999994E+00
   9.25000000E+00   1.50000000E-01   5.00000000E-01  -2.99999994E+00
   9.35000000E+00   1.50000000E-01   5.00000000E-01  -2.99999994E+00
   9.45000000E+00   1.50000000E-01   5.00000000E-01  -2.99999994E+00
   9.55000000E+00   1.50000000E-01   5.00000000E-01  -2.99999994E+00
   9.65000000E+00   1.50000000E-01   5.00000000E-01  -2.99999994E+00
   9.75000000E+00   1.50000000E-01   5.00000000E-01  -2.99999994E+00
   9.85000000E+00   1.50000000E-01   5.00000000E-01  -2.99999994E+00
   9.95000000E+00   1.50000000E-01   5.00000000E-01  -2.99999994E+00
   5.00000000E-02   2.50000000E-01   5.00000000E-01  -1.00072143E+00
   1.50000000E-01   2.50000000E-01   5.00000000E-01  -1.00170366E+00
   2.50000000E-01   2.50000000E-01   5.00000000E-01  -1.00310152E+00
   3.50000000E-01   2.50000000E-01   5.00000000E-01  -1.00490324E+00
   4.50000000E-01   2.50000000E-01   5.00000000E-01  -1.00701679E+00
   5.50000000E-01   2.50000000E-01   5.00000000E-01  -1.00923187E+00
   6.50000000E-01   2.50000000E-01   5.00000000E-01  -1.01132048E+00
   7.50000000E-01   2.50000000E-01   5.00000000E-01  -1.01377422E+00
   8.50000000E-01   2.50000000E-01   5.00000000E-01  -1.01674466E+00
   9.50000000E-01   2.50000000E-01   5.00000000E-01  -1.02035471E+00
   1.05000000E+00   2.50000000E-01   5.00000000E-01  -1.02477951E+00
   1.15000000E+00   2.50000000E-01   5.00000000E-01  -1.03026478E+00
   1.25000000E+00   2.50000000E-01   5.00000000E-01  -1.03712824E+00
   1.35000000E+00   2.50000000E-01   5.00000000E-01  -1.04575509E+00
   1.45000000E+00   2.50000000E-01   5.00000000E-01  -1.05658915E+00
   1.55000000E+00   2.50000000E-01   5.00000000E-01  -1.07011964E+00
   1.65000000E+00   2.50000000E-01   5.00000000E-01  -1.08686432E+00
   1.75000000E+00   2.50000000E-01   5.00000000E-01  -1.10735057E+00
   1.85000000E+00   2.50000000E-01   5.00000000E-01  -1.13209656E+00
   1.95000000E+00   2.50000000E-01   5.00000000E-01  -1.16159425E+00
   2.05000000E+00   2.50000000E-01   5.00000000E-01  -1.19629550E+00
   2.15000000E+00   2.50000000E-01   5.00000000E-01  -1.23660237E+00
   2.25000000E+00   2.50000000E-01   5.00000000E-01  -1.28286222E+00
   2.35000000E+00   2.50000000E-01   5.00000000E-01  -1.33536871E+00
   2.45000000E+00   2.50000000E-01   5.00000000E-01  -1.39437070E+00
   2.55000000E+00   2.50000000E-01   5.00000000E-01  -1.46009241E+00
   2.65000000E+00   2.50000000E-01   5.00000000E-01  -1.53276761E+00
   2.75000000E+00   2.50000000E-01   5.00000000E-01  -1.61268106E+00
   2.85000000E+00   2.50000000E-01   5.00000000E-01  -1.70017469E+00
   2.95000000E+00   2.50000000E-01   5.00000000E-01  -1.79549719E+00
   3.05000000E+00   2.50000000E-01   5.00000000E-01  -1.89836852E+00
   3.15000000E+00   2.50000000E-01   5.00000000E-01  -2.00789178E+00
   3.25000000E+00   2.50000000E-01   5.00000000E-01  -2.12258826E+00
   3.35000000E+00   2.50000000E-01   5.00000000E-01  -2.24039889E+00
   3.45000000E+00   2.50000000E-01   5.00000000E-01  -2.35864394E+00
   3.55000000E+00   2.50000000E-01   5.00000000E-01  -2.47401577E+00
   3.65000000E+00   2.50000000E-01   5.00000000E-01  -2.58272499E+00
   3.75000000E+00   2.50000000E-01   5.00000000E-01  -2.68092511E+00
   3.85000000E+00   2.50000000E-01   5.00000000E-01  -2.76533803E+00
   3.95000000E+00   2.50000000E-01   5.00000000E-01  -2.83404498E+00
   4.05000000E+00   2.50000000E-01   5.00000000E-01  -2.88692284E+00
   4.15000000E+00   2.50000000E-01   5.00000000E-01  -2.92549998E+00
   4.25000000E+00   2.50000000E-01   5.00000000E-01  -2.95232926E+00
   4.35000000E+00   2.50000000E-01   5.00000000E-01  -2.97024349E+00
   4.45000000E+00   2.50000000E-01   5.00000000E-01  -2.98180953E+00
   4.55000000E+00   2.50000000E-01   5.00000000E-01  -2.98907483E+00
   4.65000000E+00   2.50000000E-01   5.00000000E-01  -2.99353706E+00
   4.75000000E+00   2.50000000E-01   5.00000000E-01  -2.99622685E+00
   4.85000000E+00   2.50000000E-01   5.00000000E-01  -2.99782264E+00
   4.95000000E+00   2.50000000E-01   5.00000000E-01  -2.99875644E+00
   5.05000000E+00   2.50000000E-01   5.00000000E-01  -2.99929628E+00
   5.15000000E+00   2.50000000E-01   5.00000000E-01  -2.99960503E+00
   5.25000000E+00   2.50000000E-01   5.00000000E-01  -2.99977989E+00
   5.35000000E+00   2.50000000E-01   5.00000000E-01  -2.99987805E+00
   5.45000000E+00   2.50000000E-01   5.00000000E-01  -2.99993270E+00
   5.55000000E+00   2.50000000E-01   5.00000000E-01  -2.99996288E+00
   5.65000000E+00   2.50000000E-01   5.00000000E-01  -2.99997941E+00
   5.75000000E+00   2.50000000E-01   5.00000000E-01  -2.99998840E+00
   5.85000000E+00   2.50000000E-01   5.00000000E-01  -2.99999344E+00
   5.95000000E+00   2.50000000E-01   5.00000000E-01  -2.99999629E+00
   6.05000000E+00   2.50000000E-01   5.00000000E-01  -2.99999790E+00
   6.15000000E+00   2.50000000E-01   5.00000000E-01  -2.99999881E+00
   6.25000000E+00   2.50000000E-01   5.00000000E-01  -2.99999931E+00
   6.35000000E+00   2.50000000E-01   5.00000000E-01  -2.99999959E+00
   6.45000000E+00   2.50000000E-01   5.00000000E-01  -2.99999974E+00
   6.55000000E+00   2.50000000E-01   5.00000000E-01  -2.99999983E+00
   6.65000000E+00   2.50000000E-01   5.00000000E-01  -2.99999987E+00
   6.75000000E+00   2.50000000E-01   5.00000000E-01  -2.99999990E+00
   6.85000000E+00   2.50000000E-01   5.00000000E-01  -2.99999991E+00
   6.95000000E+00   2.50000000E-01   5.00000000E-01  -2.99999992E+00
   7.05000000E+00   2.50000000E-01   5.00000000E-01  -2.99999992E+00
   7.15000000E+00   2.50000000E-01   5.00000000E-01  -2.99999992E+00
   7.25000000E+00   2.50000000E-01   5.00000000E-01  -2.99999992E+00
   7.35000000E+00   2.50000000E-01   5.00000000E-01  -2.99999993E+00
   7.45000000E+00   2.50000000E-01   5.00000000E-01  -2.99999993E+00
   7.55000000E+00   2.50000000E-01   5.00000000E-01  -2.99999993E+00
   7.65000000E+00   2.50000000E-01   5.00000000E-01  -2.99999993E+00
   7.75000000E+00   2.50000000E-01   5.00000000E-01  -2.99999993E+00
   7.85000000E+00   2.50000000E-01   5.00000000E-01  -2.99999993E+00
   7.95000000E+00   2.50000000E-01   5.00000000E-01  -2.99999993E+00
   8.05000000E+00   2.50000000E-01   5.00000000E-01  -2.99999993E+00
   8.15000000E+00   2.50000000E-01   5.00000000E-01  -2.99999993E+00
   8.25000000E+00   2.50000000E-01   5.00000000E-01  -2.99999993E+00
   8.35000000E+00   2.50000000E-01   5.00000000E-01  -2.99999993E+00
   8.45000000E+00   2.50000000E-01   5.00000000E-01  -2.99999993E+00
   8.55000000E+00   2.50000000E-01   5.00000000E-01  -2.99999993E+00
   8.65000000E+00   2.50000000E-01   5.00000000E-01  -2.99999993E+00
   8.75000000E+00   2.50000000E-01   5.00000000E-01  -2.99999993E+00
   8.85000000E+00   2.50000000E-01   5.00000000E-01  -2.99999994E+00
   8.95000000E+00   2.50000000E-01   5.00000000E-01  -2.99999994E+00
   9.05000000E+00   2.50000000E-01   5.00000000E-01  -2.99999994E+00
   9.15000000E+00   2.50000000E-01   5.00000000E-01  -2.99999994E+00
   9.25000000E+00   2.50000000E-01   5.00000000E-01  -2.99999994E+00
   9.35000000E+00   2.50000000E-01   5.00000000E-01  -2.99999994E+00
   9.45000000E+00   2.50000000E-01   5.00000000E-01  -2.99999994E+00
   9.55000000E+00   2.50000000E-01   5.00000000E-01  -2.99999994E+00
   9.65000000E+00   2.50000000E-01   5.00000000E-01  -2.99999994E+00
   9.75000000E+00   2.50000000E-01   5.00000000E-01  -2.99999994E+00
   9.85000000E+00   2.50000000E-01   5.00000000E-01  -2.99999994E+00
   9.95000000E+00   2.50000000E-01   5.00000000E-01  -2.99999994E+00
   5.00000000E-02   3.50000000E-01   5.00000000E-01  -1.00475434E+00
   1.50000000E-01   3.50000000E-01   5.00000000E-01  -1.00895889E+00
   2.50000000E-01   3.50000000E-01   5.00000000E-01  -1.01377723E+00
   3.50000000E-01   3.50000000E-01   5.00000000E-01  -1.01908540E+00
   4.50000000E-01   3.50000000E-01   5.00000000E-01  -1.02429494E+00
   5.50000000E-01   3.50000000E-01   5.00000000E-01  -1.02815230E+00
   6.50000000E-01   3.50000000E-01   5.00000000E-01  -1.02866441E+00
   7.50000000E-01   3.50000000E-01   5.00000000E-01  -1.03069019E+00
   8.50000000E-01   3.50000000E-01   5.00000000E-01  -1.03388819E+00
   9.50000000E-01   3.50000000E-01   5.00000000E-01  -1.03807862E+00
   1.05000000E+00   3.50000000E-01   5.00000000E-01  -1.04333668E+00
   1.15000000E+00   3.50000000E-01   5.00000000E-01  -1.04987827E+00
   1.25000000E+00   3.50000000E-01   5.00000000E-01  -1.05800587E+00
   1.35000000E+00   3.50000000E-01   5.00000000E-01  -1.06808649E+00
   1.45000000E+00   3.50000000E-01   5.00000000E-01  -1.08053890E+00
   1.55000000E+00   3.50000000E-01   5.00000000E-01  -1.09582063E+00
   1.65000000E+00   3.50000000E-01   5.00000000E-01  -1.11441191E+00
   1.75000000E+00   3.50000000E-01   5.00000000E-01  -1.13679858E+00
   1.85000000E+00   3.50000000E-01   5.00000000E-01  -1.16345507E+00
   1.95000000E+00   3.50000000E-01   5.00000000E-01  -1.19482875E+00
   2.05000000E+00   3.50000000E-01   5.00000000E-01  -1.23132609E+00
   2.15000000E+00   3.50000000E-01   5.00000000E-01  -1.27330117E+00
   2.25000000E+00   3.50000000E-01   5.00000000E-01  -1.32104712E+00
   2.35000000E+00   3.50000000E-01   5.00000000E-01  -1.37479201E+00
   2.45000000E+00   3.50000000E-01   5.00000000E-01  -1.43470335E+00
   2.55000000E+00   3.50000000E-01   5.00000000E-01  -1.50091128E+00
   2.65000000E+00   3.50000000E-01   5.00000000E-01  -1.57356947E+00
   2.75000000E+00   3.50000000E-01   5.00000000E-01  -1.65297730E+00
   2.85000000E+00   3.50000000E-01   5.00000000E-01  -1.73974123E+00
   2.95000000E+00   3.50000000E-01   5.00000000E-01  -1.83469066E+00
   3.05000000E+00   3.50000000E-01   5.00000000E-01  -1.93754655E+00
   3.15000000E+00   3.50000000E-01   5.00000000E-01  -2.04710953E+00
   3.25000000E+00   3.50000000E-01   5.00000000E-01  -2.16156033E+00
   3.35000000E+00   3.50000000E-01   5.00000000E-01  -2.27855099E+00
   3.45000000E+00   3.50000000E-01   5.00000000E-01  -2.39517626E+00
   3.55000000E+00   3.50000000E-01   5.00000000E-01  -2.50798016E+00
   3.65000000E+00   3.50000000E-01   5.00000000E-01  -2.61315171E+00
   3.75000000E+00   3.50000000E-01   5.00000000E-01  -2.70699048E+00
   3.85000000E+00   3.50000000E-01   5.00000000E-01  -2.78655372E+00
   3.95000000E+00   3.50000000E-01   5.00000000E-01  -2.85040591E+00
   4.05000000E+00   3.50000000E-01   5.00000000E-01  -2.89889199E+00
   4.15000000E+00   3.50000000E-01   5.00000000E-01  -2.93384686E+00
   4.25000000E+00   3.50000000E-01   5.00000000E-01  -2.95791644E+00
   4.35000000E+00   3.50000000E-01   5.00000000E-01  -2.97385971E+00
   4.45000000E+00   3.50000000E-01   5.00000000E-01  -2.98408768E+00
   4.55000000E+00   3.50000000E-01   5.00000000E-01  -2.99047932E+00
   4.65000000E+00   3.50000000E-01   5.00000000E-01  -2.99438797E+00
   4.75000000E+00   3.50000000E-01   5.00000000E-01  -2.99673507E+00
   4.85000000E+00   3.50000000E-01   5.00000000E-01  -2.99812266E+00
   4.95000000E+00   3.50000000E-01   5.00000000E-01  -2.99893189E+00
   5.05000000E+00   3.50000000E-01   5.00000000E-01  -2.99939815E+00
   5.15000000E+00   3.50000000E-01   5.00000000E-01  -2.99966391E+00
   5.25000000E+00   3.50000000E-01   5.00000000E-01  -2.99981390E+00
   5.35000000E+00   3.50000000E-01   5.00000000E-01  -2.99989778E+00
   5.45000000E+00   3.50000000E-01   5.00000000E-01  -2.99994427E+00
   5.55000000E+00   3.50000000E-01   5.00000000E-01  -2.99996978E+00
   5.65000000E+00   3.50000000E-01   5.00000000E-01  -2.99998357E+00
   5.75000000E+00   3.50000000E-01   5.00000000E-01  -2.99999063E+00
   5.85000000E+00   3.50000000E-01   5.00000000E-01  -2.99999465E+00
   5.95000000E+00   3.50000000E-01   5.00000000E-01  -2.99999696E+00
   6.05000000E+00   3.50000000E-01   5.00000000E-01  -2.99999827E+00
   6.15000000E+00   3.50000000E-01   5.00000000E-01  -2.99999901E+00
   6.25000000E+00   3.50000000E-01   5.00000000E-01  -2.99999943E+00
   6.35000000E+00   3.50000000E-01   5.00000000E-01  -2.99999965E+00
   6.45000000E+00   3.50000000E-01   5.00000000E-01  -2.99999978E+00
   6.55000000E+00   3.50000000E-01   5.00000000E-01  -2.99999985E+00
   6.65000000E+00   3.50000000E-01   5.00000000E-01  -2.99999988E+00
   6.75000000E+00   3.50000000E-01   5.00000000E-01  -2.99999990E+00
   6.85000000E+00   3.50000000E-01   5.00000000E-01  -2.99999991E+00
   6.95000000E+00   3.50000000E-01   5.00000000E-01  -2.99999992E+00
   7.05000000E+00   3.50000000E-01   5.00000000E-01  -2.99999992E+00
   7.15000000E+00   3.50000000E-01   5.00000000E-01  -2.99999993E+00
   7.25000000E+00   3.50000000E-01   5.00000000E-01  -2.99999993E+00
   7.35000000E+00   3.50000000E-01   5.00000000E-01  -2.99999993E+00
   7.45000000E+00   3.50000000E-01   5.00000000E-01  -2.99999993E+00
   7.55000000E+00   3.50000000E-01   5.00000000E-01  -2.99999993E+00
   7.65000000E+00   3.50000000E-01   5.00000000E-01  -2.99999993E+00
   7.75000000E+00   3.50000000E-01   5.00000000E-01  -2.99999993E+00
   7.85000000E+00   3.50000000E-01   5.00000000E-01  -2.99999993E+00
   7.95000000E+00   3.50000000E-01   5.00000000E-01  -2.99999993E+00
   8.05000000E+00   3.50000000E-01   5.00000000E-01  -2.99999993E+00
   8.15000000E+00   3.50000000E-01   5.00000000E-01  -2.99999993E+00
   8.25000000E+00   3.50000000E-01   5.00000000E-01  -2.99999993E+00
   8.35000000E+00   3.50000000E-01   5.00000000E-01  -2.99999993E+00
   8.45000000E+00   3.50000000E-01   5.00000000E-01  -2.99999993E+00
   8.55000000E+00   3.50000000E-01   5.00000000E-01  -2.99999993E+00
   8.65000000E+00   3.50000000E-01   5.00000000E-01  -2.99999993E+00
   8.75000000E+00   3.50000000E-01   5.00000000E-01  -2.99999994E+00
   8.85000000E+00   3.50000000E-01   5.00000000E-01  -2.99999994E+00
   8.95000000E+00   3.50000000E-01   5.00000000E-01  -2.99999994E+00
   9.05000000E+00   3.50000000E-01   5.00000000E-01  -2.99999994E+00
   9.15000000E+00   3.50000000E-01   5.00000000E-01  -2.99999994E+00
   9.25000000E+00   3.50000000E-01   5.00000000E-01  -2.99999994E+00
   9.35000000E+00   3.50000000E-01   5.00000000E-01  -2.99999994E+00
   9.45000000E+00   3.50000000E-01   5.00000000E-01  -2.99999994E+00
   9.55000000E+00   3.50000000E-01   5.00000000E-01  -2.99999994E+00
   9.65000000E+00   3.50000000E-01   5.00000000E-01  -2.99999994E+00
   9.75000000E+00   3.50000000E-01   5.00000000E-01  -2.99999994E+00
   9.85000000E+00   3.50000000E-01   5.00000000E-01  -2.99999994E+00
   9.95000000E+00   3.50000000E-01   5.00000000E-01  -2.99999994E+00
   5.00000000E-02   4.50000000E-01   5.00000000E-01  -1.02844841E+00
   1.50000000E-01   4.50000000E-01   5.00000000E-01  -1.03426132E+00
   2.50000000E-01   4.50000000E-01   5.00000000E-01  -1.04291656E+00
   3.50000000E-01   4.50000000E-01   5.00000000E-01  -1.05203218E+00
   4.50000000E-01   4.50000000E-01   5.00000000E-01  -1.05870664E+00
   5.50000000E-01   4.50000000E-01   5.00000000E-01  -1.05873282E+00
   6.50000000E-01   4.50000000E-01   5.00000000E-01  -1.03914285E+00
   7.50000000E-01   4.50000000E-01   5.00000000E-01  -1.04196193E+00
   8.50000000E-01   4.50000000E-01   5.00000000E-01  -1.04619426E+00
   9.50000000E-01   4.50000000E-01   5.00000000E-01  -1.05160048E+00
   1.05000000E+00   4.50000000E-01   5.00000000E-01  -1.05838522E+00
   1.15000000E+00   4.50000000E-01   5.00000000E-01  -1.06683545E+00
   1.25000000E+00   4.50000000E-01   5.00000000E-01  -1.07726609E+00
   1.35000000E+00   4.50000000E-01   5.00000000E-01  -1.09001980E+00
   1.45000000E+00   4.50000000E-01   5.00000000E-01  -1.10547482E+00
   1.55000000E+00   4.50000000E-01   5.00000000E-01  -1.12403637E+00
   1.65000000E+00   4.50000000E-01   5.00000000E-01  -1.14611307E+00
   1.75000000E+00   4.50000000E-01   5.00000000E-01  -1.17210570E+00
   1.85000000E+00   4.50000000E-01   5.00000000E-01  -1.20239972E+00
   1.95000000E+00   4.50000000E-01   5.00000000E-01  -1.23735642E+00
   2.05000000E+00   4.50000000E-01   5.00000000E-01  -1.27730157E+00
   2.15000000E+00   4.50000000E-01   5.00000000E-01  -1.32251150E+00
   2.25000000E+00   4.50000000E-01   5.00000000E-01  -1.37319728E+00
   2.35000000E+00   4.50000000E-01   5.00000000E-01  -1.42948754E+00
   2.45000000E+00   4.50000000E-01   5.00000000E-01  -1.49141392E+00
   2.55000000E+00   4.50000000E-01   5.00000000E-01  -1.55891312E+00
   2.65000000E+00   4.50000000E-01   5.00000000E-01  -1.63188959E+00
   2.75000000E+00   4.50000000E-01   5.00000000E-01  -1.71045305E+00
   2.85000000E+00   4.50000000E-01   5.00000000E-01  -1.79554892E+00
   2.95000000E+00   4.50000000E-01   5.00000000E-01  -1.88989765E+00
   3.05000000E+00   4.50000000E-01   5.00000000E-01  -1.99290224E+00
   3.15000000E+00   4.50000000E-01   5.00000000E-01  -2.10259926E+00