 TITLE = "Total Concentrations (log mol/kgw)" 
VARIABLES = "X"          "Y"              "Z"            "Br-"           
 ZONE I=         100 , J=          20 , K=           1  F=POINT
   5.00000000E-02   5.00000000E-02   5.00000000E-01  -9.99999986E-01
   1.50000000E-01   5.00000000E-02   5.00000000E-01  -9.99999986E-01
   2.50000000E-01   5.00000000E-02   5.00000000E-01  -9.99999987E-01
   3.50000000E-01   5.00000000E-02   5.00000000E-01  -9.99999987E-01
   4.50000000E-01   5.00000000E-02   5.00000000E-01  -9.99999989E-01
   5.50000000E-01   5.00000000E-02   5.00000000E-01  -9.99999991E-01
   6.50000000E-01   5.00000000E-02   5.00000000E-01  -9.99999994E-01
   7.50000000E-01   5.00000000E-02   5.00000000E-01  -9.99999999E-01
   8.50000000E-01   5.00000000E-02   5.00000000E-01  -1.00000001E+00
   9.50000000E-01   5.00000000E-02   5.00000000E-01  -1.00000002E+00
   1.05000000E+00   5.00000000E-02   5.00000000E-01  -1.00000003E+00
   1.15000000E+00   5.00000000E-02   5.00000000E-01  -1.00000005E+00
   1.25000000E+00   5.00000000E-02   5.00000000E-01  -1.00000008E+00
   1.35000000E+00   5.00000000E-02   5.00000000E-01  -1.00000012E+00
   1.45000000E+00   5.00000000E-02   5.00000000E-01  -1.00000017E+00
   1.55000000E+00   5.00000000E-02   5.00000000E-01  -1.00000024E+00
   1.65000000E+00   5.00000000E-02   5.00000000E-01  -1.00000033E+00
   1.75000000E+00   5.00000000E-02   5.00000000E-01  -1.00000045E+00
   1.85000000E+00   5.00000000E-02   5.00000000E-01  -1.00000062E+00
   1.95000000E+00   5.00000000E-02   5.00000000E-01  -1.00000085E+00
   2.05000000E+00   5.00000000E-02   5.00000000E-01  -1.00000115E+00
   2.15000000E+00   5.00000000E-02   5.00000000E-01  -1.00000156E+00
   2.25000000E+00   5.00000000E-02   5.00000000E-01  -1.00000210E+00
   2.35000000E+00   5.00000000E-02   5.00000000E-01  -1.00000280E+00
   2.45000000E+00   5.00000000E-02   5.00000000E-01  -1.00000372E+00
   2.55000000E+00   5.00000000E-02   5.00000000E-01  -1.00000489E+00
   2.65000000E+00   5.00000000E-02   5.00000000E-01  -1.00000637E+00
   2.75000000E+00   5.00000000E-02   5.00000000E-01  -1.00000822E+00
   2.85000000E+00   5.00000000E-02   5.00000000E-01  -1.00001052E+00
   2.95000000E+00   5.00000000E-02   5.00000000E-01  -1.00001334E+00
   3.05000000E+00   5.00000000E-02   5.00000000E-01  -1.00001678E+00
   3.15000000E+00   5.00000000E-02   5.00000000E-01  -1.00002094E+00
   3.25000000E+00   5.00000000E-02   5.00000000E-01  -1.00002593E+00
   3.35000000E+00   5.00000000E-02   5.00000000E-01  -1.00003187E+00
   3.45000000E+00   5.00000000E-02   5.00000000E-01  -1.00003888E+00
   3.55000000E+00   5.00000000E-02   5.00000000E-01  -1.00004709E+00
   3.65000000E+00   5.00000000E-02   5.00000000E-01  -1.00005665E+00
   3.75000000E+00   5.00000000E-02   5.00000000E-01  -1.00006776E+00
   3.85000000E+00   5.00000000E-02   5.00000000E-01  -1.00008061E+00
   3.95000000E+00   5.00000000E-02   5.00000000E-01  -1.00009541E+00
   4.05000000E+00   5.00000000E-02   5.00000000E-01  -1.00011236E+00
   4.15000000E+00   5.00000000E-02   5.00000000E-01  -1.00013167E+00
   4.25000000E+00   5.00000000E-02   5.00000000E-01  -1.00015358E+00
   4.35000000E+00   5.00000000E-02   5.00000000E-01  -1.00017833E+00
   4.45000000E+00   5.00000000E-02   5.00000000E-01  -1.00020618E+00
   4.55000000E+00   5.00000000E-02   5.00000000E-01  -1.00023741E+00
   4.65000000E+00   5.00000000E-02   5.00000000E-01  -1.00027231E+00
   4.75000000E+00   5.00000000E-02   5.00000000E-01  -1.00031120E+00
   4.85000000E+00   5.00000000E-02   5.00000000E-01  -1.00035446E+00
   4.95000000E+00   5.00000000E-02   5.00000000E-01  -1.00040249E+00
   5.05000000E+00   5.00000000E-02   5.00000000E-01  -1.00045580E+00
   5.15000000E+00   5.00000000E-02   5.00000000E-01  -1.00051504E+00
   5.25000000E+00   5.00000000E-02   5.00000000E-01  -1.00058099E+00
   5.35000000E+00   5.00000000E-02   5.00000000E-01  -1.00065453E+00
   5.45000000E+00   5.00000000E-02   5.00000000E-01  -1.00073636E+00
   5.55000000E+00   5.00000000E-02   5.00000000E-01  -1.00082632E+00
   5.65000000E+00   5.00000000E-02   5.00000000E-01  -1.00092241E+00
   5.75000000E+00   5.00000000E-02   5.00000000E-01  -1.00102126E+00
   5.85000000E+00   5.00000000E-02   5.00000000E-01  -1.00112180E+00
   5.95000000E+00   5.00000000E-02   5.00000000E-01  -1.00122453E+00
   6.05000000E+00   5.00000000E-02   5.00000000E-01  -1.00133044E+00
   6.15000000E+00   5.00000000E-02   5.00000000E-01  -1.00144060E+00
   6.25000000E+00   5.00000000E-02   5.00000000E-01  -1.00155598E+00
   6.35000000E+00   5.00000000E-02   5.00000000E-01  -1.00167754E+00
   6.45000000E+00   5.00000000E-02   5.00000000E-01  -1.00180626E+00
   6.55000000E+00   5.00000000E-02   5.00000000E-01  -1.00194321E+00
   6.65000000E+00   5.00000000E-02   5.00000000E-01  -1.00208952E+00
   6.75000000E+00   5.00000000E-02   5.00000000E-01  -1.00224644E+00
   6.85000000E+00   5.00000000E-02   5.00000000E-01  -1.00241535E+00
   6.95000000E+00   5.00000000E-02   5.00000000E-01  -1.00259775E+00
   7.05000000E+00   5.00000000E-02   5.00000000E-01  -1.00279518E+00
   7.15000000E+00   5.00000000E-02   5.00000000E-01  -1.00300929E+00
   7.25000000E+00   5.00000000E-02   5.00000000E-01  -1.00324178E+00
   7.35000000E+00   5.00000000E-02   5.00000000E-01  -1.00349437E+00
   7.45000000E+00   5.00000000E-02   5.00000000E-01  -1.00376874E+00
   7.55000000E+00   5.00000000E-02   5.00000000E-01  -1.00406648E+00
   7.65000000E+00   5.00000000E-02   5.00000000E-01  -1.00438908E+00
   7.75000000E+00   5.00000000E-02   5.00000000E-01  -1.00473801E+00
   7.85000000E+00   5.00000000E-02   5.00000000E-01  -1.00511509E+00
   7.95000000E+00   5.00000000E-02   5.00000000E-01  -1.00552320E+00
   8.05000000E+00   5.00000000E-02   5.00000000E-01  -1.00596635E+00
   8.15000000E+00   5.00000000E-02   5.00000000E-01  -1.00644755E+00
   8.25000000E+00   5.00000000E-02   5.00000000E-01  -1.00696834E+00
   8.35000000E+00   5.00000000E-02   5.00000000E-01  -1.00752924E+00
   8.45000000E+00   5.00000000E-02   5.00000000E-01  -1.00813030E+00
   8.55000000E+00   5.00000000E-02   5.00000000E-01  -1.00877144E+00
   8.65000000E+00   5.00000000E-02   5.00000000E-01  -1.00945270E+00
   8.75000000E+00   5.00000000E-02   5.00000000E-01  -1.01017425E+00
   8.85000000E+00   5.00000000E-02   5.00000000E-01  -1.01093652E+00
   8.95000000E+00   5.00000000E-02   5.00000000E-01  -1.01174014E+00
   9.05000000E+00   5.00000000E-02   5.00000000E-01  -1.01258600E+00
   9.15000000E+00   5.00000000E-02   5.00000000E-01  -1.01347521E+00
   9.25000000E+00   5.00000000E-02   5.00000000E-01  -1.01440916E+00
   9.35000000E+00   5.00000000E-02   5.00000000E-01  -1.01538942E+00
   9.45000000E+00   5.00000000E-02   5.00000000E-01  -1.01641771E+00
   9.55000000E+00   5.00000000E-02   5.00000000E-01  -1.01749566E+00
   9.65000000E+00   5.00000000E-02   5.00000000E-01  -1.01862375E+00
   9.75000000E+00   5.00000000E-02   5.00000000E-01  -1.01979651E+00
   9.85000000E+00   5.00000000E-02   5.00000000E-01  -1.02097966E+00
   9.95000000E+00   5.00000000E-02   5.00000000E-01  -1.02199869E+00
   5.00000000E-02   1.50000000E-01   5.00000000E-01  -9.99999987E-01
   1.50000000E-01   1.50000000E-01   5.00000000E-01  -9.99999987E-01
   2.50000000E-01   1.50000000E-01   5.00000000E-01  -9.99999989E-01
   3.50000000E-01   1.50000000E-01   5.00000000E-01  -9.99999992E-01
   4.50000000E-01   1.50000000E-01   5.00000000E-01  -9.99999997E-01
   5.50000000E-01   1.50000000E-01   5.00000000E-01  -1.00000000E+00
   6.50000000E-01   1.50000000E-01   5.00000000E-01  -1.00000001E+00
   7.50000000E-01   1.50000000E-01   5.00000000E-01  -1.00000003E+00
   8.50000000E-01   1.50000000E-01   5.00000000E-01  -1.00000005E+00
   9.50000000E-01   1.50000000E-01   5.00000000E-01  -1.00000008E+00
   1.05000000E+00   1.50000000E-01   5.00000000E-01  -1.00000012E+00
   1.15000000E+00   1.50000000E-01   5.00000000E-01  -1.00000017E+00
   1.25000000E+00   1.50000000E-01   5.00000000E-01  -1.00000024E+00
   1.35000000E+00   1.50000000E-01   5.00000000E-01  -1.00000033E+00
   1.45000000E+00   1.50000000E-01   5.00000000E-01  -1.00000045E+00
   1.55000000E+00   1.50000000E-01   5.00000000E-01  -1.00000062E+00
   1.65000000E+00   1.50000000E-01   5.00000000E-01  -1.00000084E+00
   1.75000000E+00   1.50000000E-01   5.00000000E-01  -1.00000114E+00
   1.85000000E+00   1.50000000E-01   5.00000000E-01  -1.00000155E+00
   1.95000000E+00   1.50000000E-01   5.00000000E-01  -1.00000210E+00
   2.05000000E+00   1.50000000E-01   5.00000000E-01  -1.00000283E+00
   2.15000000E+00   1.50000000E-01   5.00000000E-01  -1.00000380E+00
   2.25000000E+00   1.50000000E-01   5.00000000E-01  -1.00000506E+00
   2.35000000E+00   1.50000000E-01   5.00000000E-01  -1.00000668E+00
   2.45000000E+00   1.50000000E-01   5.00000000E-01  -1.00000872E+00
   2.55000000E+00   1.50000000E-01   5.00000000E-01  -1.00001125E+00
   2.65000000E+00   1.50000000E-01   5.00000000E-01  -1.00001432E+00
   2.75000000E+00   1.50000000E-01   5.00000000E-01  -1.00001801E+00
   2.85000000E+00   1.50000000E-01   5.00000000E-01  -1.00002239E+00
   2.95000000E+00   1.50000000E-01   5.00000000E-01  -1.00002758E+00
   3.05000000E+00   1.50000000E-01   5.00000000E-01  -1.00003372E+00
   3.15000000E+00   1.50000000E-01   5.00000000E-01  -1.00004094E+00
   3.25000000E+00   1.50000000E-01   5.00000000E-01  -1.00004940E+00
   3.35000000E+00   1.50000000E-01   5.00000000E-01  -1.00005924E+00
   3.45000000E+00   1.50000000E-01   5.00000000E-01  -1.00007059E+00
   3.55000000E+00   1.50000000E-01   5.00000000E-01  -1.00008361E+00
   3.65000000E+00   1.50000000E-01   5.00000000E-01  -1.00009849E+00
   3.75000000E+00   1.50000000E-01   5.00000000E-01  -1.00011553E+00
   3.85000000E+00   1.50000000E-01   5.00000000E-01  -1.00013500E+00
   3.95000000E+00   1.50000000E-01   5.00000000E-01  -1.00015710E+00
   4.05000000E+00   1.50000000E-01   5.00000000E-01  -1.00018205E+00
   4.15000000E+00   1.50000000E-01   5.00000000E-01  -1.00021011E+00
   4.25000000E+00   1.50000000E-01   5.00000000E-01  -1.00024155E+00
   4.35000000E+00   1.50000000E-01   5.00000000E-01  -1.00027665E+00
   4.45000000E+00   1.50000000E-01   5.00000000E-01  -1.00031572E+00
   4.55000000E+00   1.50000000E-01   5.00000000E-01  -1.00035912E+00
   4.65000000E+00   1.50000000E-01   5.00000000E-01  -1.00040722E+00
   4.75000000E+00   1.50000000E-01   5.00000000E-01  -1.00046045E+00
   4.85000000E+00   1.50000000E-01   5.00000000E-01  -1.00051931E+00
   4.95000000E+00   1.50000000E-01   5.00000000E-01  -1.00058445E+00
   5.05000000E+00   1.50000000E-01   5.00000000E-01  -1.00065672E+00
   5.15000000E+00   1.50000000E-01   5.00000000E-01  -1.00073729E+00
   5.25000000E+00   1.50000000E-01   5.00000000E-01  -1.00082781E+00
   5.35000000E+00   1.50000000E-01   5.00000000E-01  -1.00093033E+00
   5.45000000E+00   1.50000000E-01   5.00000000E-01  -1.00104678E+00
   5.55000000E+00   1.50000000E-01   5.00000000E-01  -1.00117683E+00
   5.65000000E+00   1.50000000E-01   5.00000000E-01  -1.00131354E+00
   5.75000000E+00   1.50000000E-01   5.00000000E-01  -1.00144269E+00
   5.85000000E+00   1.50000000E-01   5.00000000E-01  -1.00156441E+00
   5.95000000E+00   1.50000000E-01   5.00000000E-01  -1.00168299E+00
   6.05000000E+00   1.50000000E-01   5.00000000E-01  -1.00180259E+00
   6.15000000E+00   1.50000000E-01   5.00000000E-01  -1.00192652E+00
   6.25000000E+00   1.50000000E-01   5.00000000E-01  -1.00205748E+00
   6.35000000E+00   1.50000000E-01   5.00000000E-01  -1.00219783E+00
   6.45000000E+00   1.50000000E-01   5.00000000E-01  -1.00234976E+00
   6.55000000E+00   1.50000000E-01   5.00000000E-01  -1.00251542E+00
   6.65000000E+00   1.50000000E-01   5.00000000E-01  -1.00269692E+00
   6.75000000E+00   1.50000000E-01   5.00000000E-01  -1.00289640E+00
   6.85000000E+00   1.50000000E-01   5.00000000E-01  -1.00311598E+00
   6.95000000E+00   1.50000000E-01   5.00000000E-01  -1.00335782E+00
   7.05000000E+00   1.50000000E-01   5.00000000E-01  -1.00362391E+00
   7.15000000E+00   1.50000000E-01   5.00000000E-01  -1.00391617E+00
   7.25000000E+00   1.50000000E-01   5.00000000E-01  -1.00423620E+00
   7.35000000E+00   1.50000000E-01   5.00000000E-01  -1.00458515E+00
   7.45000000E+00   1.50000000E-01   5.00000000E-01  -1.00496328E+00
   7.55000000E+00   1.50000000E-01   5.00000000E-01  -1.00536952E+00
   7.65000000E+00   1.50000000E-01   5.00000000E-01  -1.00580096E+00
   7.75000000E+00   1.50000000E-01   5.00000000E-01  -1.00625311E+00
   7.85000000E+00   1.50000000E-01   5.00000000E-01  -1.00672211E+00
   7.95000000E+00   1.50000000E-01   5.00000000E-01  -1.00721032E+00
   8.05000000E+00   1.50000000E-01   5.00000000E-01  -1.00773130E+00
   8.15000000E+00   1.50000000E-01   5.00000000E-01  -1.00829425E+00
   8.25000000E+00   1.50000000E-01   5.00000000E-01  -1.00890231E+00
   8.35000000E+00   1.50000000E-01   5.00000000E-01  -1.00955494E+00
   8.45000000E+00   1.50000000E-01   5.00000000E-01  -1.01025015E+00
   8.55000000E+00   1.50000000E-01   5.00000000E-01  -1.01098571E+00
   8.65000000E+00   1.50000000E-01   5.00000000E-01  -1.01175969E+00
   8.75000000E+00   1.50000000E-01   5.00000000E-01  -1.01257064E+00
   8.85000000E+00   1.50000000E-01   5.00000000E-01  -1.01341768E+00
   8.95000000E+00   1.50000000E-01   5.00000000E-01  -1.01430050E+00
   9.05000000E+00   1.50000000E-01   5.00000000E-01  -1.01521936E+00
   9.15000000E+00   1.50000000E-01   5.00000000E-01  -1.01617513E+00
   9.25000000E+00   1.50000000E-01   5.00000000E-01  -1.01716926E+00
   9.35000000E+00   1.50000000E-01   5.00000000E-01  -1.01820380E+00
   9.45000000E+00   1.50000000E-01   5.00000000E-01  -1.01928131E+00
   9.55000000E+00   1.50000000E-01   5.00000000E-01  -1.02040455E+00
   9.65000000E+00   1.50000000E-01   5.00000000E-01  -1.02157534E+00
   9.75000000E+00   1.50000000E-01   5.00000000E-01  -1.02278944E+00
   9.85000000E+00   1.50000000E-01   5.00000000E-01  -1.02401276E+00
   9.95000000E+00   1.50000000E-01   5.00000000E-01  -1.02506615E+00
   5.00000000E-02   2.50000000E-01   5.00000000E-01  -9.99999989E-01
   1.50000000E-01   2.50000000E-01   5.00000000E-01  -9.99999993E-01
   2.50000000E-01   2.50000000E-01   5.00000000E-01  -1.00000000E+00
   3.50000000E-01   2.50000000E-01   5.00000000E-01  -1.00000001E+00
   4.50000000E-01   2.50000000E-01   5.00000000E-01  -1.00000004E+00
   5.50000000E-01   2.50000000E-01   5.00000000E-01  -1.00000007E+00
   6.50000000E-01   2.50000000E-01   5.00000000E-01  -1.00000010E+00
   7.50000000E-01   2.50000000E-01   5.00000000E-01  -1.00000015E+00
   8.50000000E-01   2.50000000E-01   5.00000000E-01  -1.00000022E+00
   9.50000000E-01   2.50000000E-01   5.00000000E-01  -1.00000032E+00
   1.05000000E+00   2.50000000E-01   5.00000000E-01  -1.00000044E+00
   1.15000000E+00   2.50000000E-01   5.00000000E-01  -1.00000059E+00
   1.25000000E+00   2.50000000E-01   5.00000000E-01  -1.00000079E+00
   1.35000000E+00   2.50000000E-01   5.00000000E-01  -1.00000106E+00
   1.45000000E+00   2.50000000E-01   5.00000000E-01  -1.00000142E+00
   1.55000000E+00   2.50000000E-01   5.00000000E-01  -1.00000191E+00
   1.65000000E+00   2.50000000E-01   5.00000000E-01  -1.00000257E+00
   1.75000000E+00   2.50000000E-01   5.00000000E-01  -1.00000349E+00
   1.85000000E+00   2.50000000E-01   5.00000000E-01  -1.00000473E+00
   1.95000000E+00   2.50000000E-01   5.00000000E-01  -1.00000639E+00
   2.05000000E+00   2.50000000E-01   5.00000000E-01  -1.00000858E+00
   2.15000000E+00   2.50000000E-01   5.00000000E-01  -1.00001144E+00
   2.25000000E+00   2.50000000E-01   5.00000000E-01  -1.00001507E+00
   2.35000000E+00   2.50000000E-01   5.00000000E-01  -1.00001960E+00
   2.45000000E+00   2.50000000E-01   5.00000000E-01  -1.00002511E+00
   2.55000000E+00   2.50000000E-01   5.00000000E-01  -1.00003167E+00
   2.65000000E+00   2.50000000E-01   5.00000000E-01  -1.00003928E+00
   2.75000000E+00   2.50000000E-01   5.00000000E-01  -1.00004793E+00
   2.85000000E+00   2.50000000E-01   5.00000000E-01  -1.00005768E+00
   2.95000000E+00   2.50000000E-01   5.00000000E-01  -1.00006875E+00
   3.05000000E+00   2.50000000E-01   5.00000000E-01  -1.00008141E+00
   3.15000000E+00   2.50000000E-01   5.00000000E-01  -1.00009590E+00
   3.25000000E+00   2.50000000E-01   5.00000000E-01  -1.00011245E+00
   3.35000000E+00   2.50000000E-01   5.00000000E-01  -1.00013123E+00
   3.45000000E+00   2.50000000E-01   5.00000000E-01  -1.00015239E+00
   3.55000000E+00   2.50000000E-01   5.00000000E-01  -1.00017609E+00
   3.65000000E+00   2.50000000E-01   5.00000000E-01  -1.00020258E+00
   3.75000000E+00   2.50000000E-01   5.00000000E-01  -1.00023243E+00
   3.85000000E+00   2.50000000E-01   5.00000000E-01  -1.00026584E+00
   3.95000000E+00   2.50000000E-01   5.00000000E-01  -1.00030303E+00
   4.05000000E+00   2.50000000E-01   5.00000000E-01  -1.00034426E+00
   4.15000000E+00   2.50000000E-01   5.00000000E-01  -1.00038979E+00
   4.25000000E+00   2.50000000E-01   5.00000000E-01  -1.00043994E+00
   4.35000000E+00   2.50000000E-01   5.00000000E-01  -1.00049507E+00
   4.45000000E+00   2.50000000E-01   5.00000000E-01  -1.00055557E+00
   4.55000000E+00   2.50000000E-01   5.00000000E-01  -1.00062186E+00
   4.65000000E+00   2.50000000E-01   5.00000000E-01  -1.00069443E+00
   4.75000000E+00   2.50000000E-01   5.00000000E-01  -1.00077382E+00
   4.85000000E+00   2.50000000E-01   5.00000000E-01  -1.00086069E+00
   4.95000000E+00   2.50000000E-01   5.00000000E-01  -1.00095593E+00
   5.05000000E+00   2.50000000E-01   5.00000000E-01  -1.00106076E+00
   5.15000000E+00   2.50000000E-01   5.00000000E-01  -1.00117707E+00
   5.25000000E+00   2.50000000E-01   5.00000000E-01  -1.00130776E+00
   5.35000000E+00   2.50000000E-01   5.00000000E-01  -1.00145723E+00
   5.45000000E+00   2.50000000E-01   5.00000000E-01  -1.00163108E+00
   5.55000000E+00   2.50000000E-01   5.00000000E-01  -1.00183230E+00
   5.65000000E+00   2.50000000E-01   5.00000000E-01  -1.00204652E+00
   5.75000000E+00   2.50000000E-01   5.00000000E-01  -1.00222145E+00
   5.85000000E+00   2.50000000E-01   5.00000000E-01  -1.00237502E+00
   5.95000000E+00   2.50000000E-01   5.00000000E-01  -1.00252282E+00
   6.05000000E+00   2.50000000E-01   5.00000000E-01  -1.00267489E+00
   6.15000000E+00   2.50000000E-01   5.00000000E-01  -1.00283853E+00
   6.25000000E+00   2.50000000E-01   5.00000000E-01  -1.00301998E+00
   6.35000000E+00   2.50000000E-01   5.00000000E-01  -1.00322460E+00
   6.45000000E+00   2.50000000E-01   5.00000000E-01  -1.00345699E+00
   6.55000000E+00   2.50000000E-01   5.00000000E-01  -1.00372116E+00
   6.65000000E+00   2.50000000E-01   5.00000000E-01  -1.00402060E+00
   6.75000000E+00   2.50000000E-01   5.00000000E-01  -1.00435841E+00
   6.85000000E+00   2.50000000E-01   5.00000000E-01  -1.00473736E+00
   6.95000000E+00   2.50000000E-01   5.00000000E-01  -1.00515987E+00
   7.05000000E+00   2.50000000E-01   5.00000000E-01  -1.00562786E+00
   7.15000000E+00   2.50000000E-01   5.00000000E-01  -1.00614251E+00
   7.25000000E+00   2.50000000E-01   5.00000000E-01  -1.00670383E+00
   7.35000000E+00   2.50000000E-01   5.00000000E-01  -1.00730979E+00
   7.45000000E+00   2.50000000E-01   5.00000000E-01  -1.00795479E+00
   7.55000000E+00   2.50000000E-01   5.00000000E-01  -1.00862759E+00
   7.65000000E+00   2.50000000E-01   5.00000000E-01  -1.00930896E+00
   7.75000000E+00   2.50000000E-01   5.00000000E-01  -1.00997157E+00
   7.85000000E+00   2.50000000E-01   5.00000000E-01  -1.01058852E+00
   7.95000000E+00   2.50000000E-01   5.00000000E-01  -1.01116011E+00
   8.05000000E+00   2.50000000E-01   5.00000000E-01  -1.01175841E+00
   8.15000000E+00   2.50000000E-01   5.00000000E-01  -1.01241708E+00
   8.25000000E+00   2.50000000E-01   5.00000000E-01  -1.01314095E+00
   8.35000000E+00   2.50000000E-01   5.00000000E-01  -1.01392306E+00
   8.45000000E+00   2.50000000E-01   5.00000000E-01  -1.01475408E+00
   8.55000000E+00   2.50000000E-01   5.00000000E-01  -1.01562574E+00
   8.65000000E+00   2.50000000E-01   5.00000000E-01  -1.01653153E+00
   8.75000000E+00   2.50000000E-01   5.00000000E-01  -1.01746664E+00
   8.85000000E+00   2.50000000E-01   5.00000000E-01  -1.01842786E+00
   8.95000000E+00   2.50000000E-01   5.00000000E-01  -1.01941344E+00
   9.05000000E+00   2.50000000E-01   5.00000000E-01  -1.02042306E+00
   9.15000000E+00   2.50000000E-01   5.00000000E-01  -1.02145770E+00
   9.25000000E+00   2.50000000E-01   5.00000000E-01  -1.02251969E+00
   9.35000000E+00   2.50000000E-01   5.00000000E-01  -1.02361264E+00
   9.45000000E+00   2.50000000E-01   5.00000000E-01  -1.02474145E+00
   9.55000000E+00   2.50000000E-01   5.00000000E-01  -1.02591188E+00
   9.65000000E+00   2.50000000E-01   5.00000000E-01  -1.02712901E+00
   9.75000000E+00   2.50000000E-01   5.00000000E-01  -1.02839145E+00
   9.85000000E+00   2.50000000E-01   5.00000000E-01  -1.02966607E+00
   9.95000000E+00   2.50000000E-01   5.00000000E-01  -1.03076681E+00
   5.00000000E-02   3.50000000E-01   5.00000000E-01  -1.00000000E+00
   1.50000000E-01   3.50000000E-01   5.00000000E-01  -1.00000002E+00
   2.50000000E-01   3.50000000E-01   5.00000000E-01  -1.00000006E+00
   3.50000000E-01   3.50000000E-01   5.00000000E-01  -1.00000013E+00
   4.50000000E-01   3.50000000E-01   5.00000000E-01  -1.00000023E+00
   5.50000000E-01   3.50000000E-01   5.00000000E-01  -1.00000035E+00
   6.50000000E-01   3.50000000E-01   5.00000000E-01  -1.00000046E+00
   7.50000000E-01   3.50000000E-01   5.00000000E-01  -1.00000063E+00
   8.50000000E-01   3.50000000E-01   5.00000000E-01  -1.00000084E+00
   9.50000000E-01   3.50000000E-01   5.00000000E-01  -1.00000111E+00
   1.05000000E+00   3.50000000E-01   5.00000000E-01  -1.00000144E+00
   1.15000000E+00   3.50000000E-01   5.00000000E-01  -1.00000188E+00
   1.25000000E+00   3.50000000E-01   5.00000000E-01  -1.00000247E+00
   1.35000000E+00   3.50000000E-01   5.00000000E-01  -1.00000326E+00
   1.45000000E+00   3.50000000E-01   5.00000000E-01  -1.00000435E+00
   1.55000000E+00   3.50000000E-01   5.00000000E-01  -1.00000587E+00
   1.65000000E+00   3.50000000E-01   5.00000000E-01  -1.00000798E+00
   1.75000000E+00   3.50000000E-01   5.00000000E-01  -1.00001087E+00
   1.85000000E+00   3.50000000E-01   5.00000000E-01  -1.00001478E+00
   1.95000000E+00   3.50000000E-01   5.00000000E-01  -1.00001995E+00
   2.05000000E+00   3.50000000E-01   5.00000000E-01  -1.00002665E+00
   2.15000000E+00   3.50000000E-01   5.00000000E-01  -1.00003513E+00
   2.25000000E+00   3.50000000E-01   5.00000000E-01  -1.00004563E+00
   2.35000000E+00   3.50000000E-01   5.00000000E-01  -1.00005829E+00
   2.45000000E+00   3.50000000E-01   5.00000000E-01  -1.00007313E+00
   2.55000000E+00   3.50000000E-01   5.00000000E-01  -1.00008994E+00
   2.65000000E+00   3.50000000E-01   5.00000000E-01  -1.00010831E+00
   2.75000000E+00   3.50000000E-01   5.00000000E-01  -1.00012774E+00
   2.85000000E+00   3.50000000E-01   5.00000000E-01  -1.00014808E+00
   2.95000000E+00   3.50000000E-01   5.00000000E-01  -1.00017009E+00
   3.05000000E+00   3.50000000E-01   5.00000000E-01  -1.00019452E+00
   3.15000000E+00   3.50000000E-01   5.00000000E-01  -1.00022188E+00
   3.25000000E+00   3.50000000E-01   5.00000000E-01  -1.00025245E+00
   3.35000000E+00   3.50000000E-01   5.00000000E-01  -1.00028637E+00
   3.45000000E+00   3.50000000E-01   5.00000000E-01  -1.00032374E+00
   3.55000000E+00   3.50000000E-01   5.00000000E-01  -1.00036471E+00
   3.65000000E+00   3.50000000E-01   5.00000000E-01  -1.00040967E+00
   3.75000000E+00   3.50000000E-01   5.00000000E-01  -1.00045939E+00
   3.85000000E+00   3.50000000E-01   5.00000000E-01  -1.00051388E+00
   3.95000000E+00   3.50000000E-01   5.00000000E-01  -1.00057331E+00
   4.05000000E+00   3.50000000E-01   5.00000000E-01  -1.00063795E+00
   4.15000000E+00   3.50000000E-01   5.00000000E-01  -1.00070810E+00
   4.25000000E+00   3.50000000E-01   5.00000000E-01  -1.00078412E+00
   4.35000000E+00   3.50000000E-01   5.00000000E-01  -1.00086643E+00
   4.45000000E+00   3.50000000E-01   5.00000000E-01  -1.00095548E+00
   4.55000000E+00   3.50000000E-01   5.00000000E-01  -1.00105177E+00
   4.65000000E+00   3.50000000E-01   5.00000000E-01  -1.00115583E+00
   4.75000000E+00   3.50000000E-01   5.00000000E-01  -1.00126825E+00
   4.85000000E+00   3.50000000E-01   5.00000000E-01  -1.00138971E+00
   4.95000000E+00   3.50000000E-01   5.00000000E-01  -1.00152111E+00
   5.05000000E+00   3.50000000E-01   5.00000000E-01  -1.00166378E+00
   5.15000000E+00   3.50000000E-01   5.00000000E-01  -1.00181987E+00
   5.25000000E+00   3.50000000E-01   5.00000000E-01  -1.00199321E+00
   5.35000000E+00   3.50000000E-01   5.00000000E-01  -1.00219076E+00
   5.45000000E+00   3.50000000E-01   5.00000000E-01  -1.00242477E+00
   5.55000000E+00   3.50000000E-01   5.00000000E-01  -1.00271205E+00
   5.65000000E+00   3.50000000E-01   5.00000000E-01  -1.00304646E+00
   5.75000000E+00   3.50000000E-01   5.00000000E-01  -1.00326058E+00
   5.85000000E+00   3.50000000E-01   5.00000000E-01  -1.00345912E+00
   5.95000000E+00   3.50000000E-01   5.00000000E-01  -1.00367179E+00
   6.05000000E+00   3.50000000E-01   5.00000000E-01  -1.00391445E+00
   6.15000000E+00   3.50000000E-01   5.00000000E-01  -1.00420236E+00
   6.25000000E+00   3.50000000E-01   5.00000000E-01  -1.00455140E+00
   6.35000000E+00   3.50000000E-01   5.00000000E-01  -1.00496948E+00
   6.45000000E+00   3.50000000E-01   5.00000000E-01  -1.00546035E+00
   6.55000000E+00   3.50000000E-01   5.00000000E-01  -1.00602577E+00
   6.65000000E+00   3.50000000E-01   5.00000000E-01  -1.00666671E+00
   6.75000000E+00   3.50000000E-01   5.00000000E-01  -1.00738381E+00
   6.85000000E+00   3.50000000E-01   5.00000000E-01  -1.00817752E+00
   6.95000000E+00   3.50000000E-01   5.00000000E-01  -1.00904789E+00
   7.05000000E+00   3.50000000E-01   5.00000000E-01  -1.00999398E+00
   7.15000000E+00   3.50000000E-01   5.00000000E-01  -1.01101294E+00
   7.25000000E+00   3.50000000E-01   5.00000000E-01  -1.01209834E+00
   7.35000000E+00   3.50000000E-01   5.00000000E-01  -1.01323726E+00
   7.45000000E+00   3.50000000E-01   5.00000000E-01  -1.01440579E+00
   7.55000000E+00   3.50000000E-01   5.00000000E-01  -1.01556230E+00
   7.65000000E+00   3.50000000E-01   5.00000000E-01  -1.01663998E+00
   7.75000000E+00   3.50000000E-01   5.00000000E-01  -1.01754480E+00
   7.85000000E+00   3.50000000E-01   5.00000000E-01  -1.01817749E+00
   7.95000000E+00   3.50000000E-01   5.00000000E-01  -1.01850312E+00
   8.05000000E+00   3.50000000E-01   5.00000000E-01  -1.01889479E+00
   8.15000000E+00   3.50000000E-01   5.00000000E-01  -1.01944428E+00
   8.25000000E+00   3.50000000E-01   5.00000000E-01  -1.02013290E+00
   8.35000000E+00   3.50000000E-01   5.00000000E-01  -1.02092374E+00
   8.45000000E+00   3.50000000E-01   5.00000000E-01  -1.02178700E+00
   8.55000000E+00   3.50000000E-01   5.00000000E-01  -1.02270178E+00
   8.65000000E+00   3.50000000E-01   5.00000000E-01  -1.02365389E+00
   8.75000000E+00   3.50000000E-01   5.00000000E-01  -1.02463294E+00
   8.85000000E+00   3.50000000E-01   5.00000000E-01  -1.02563173E+00
   8.95000000E+00   3.50000000E-01   5.00000000E-01  -1.02664660E+00
   9.05000000E+00   3.50000000E-01   5.00000000E-01  -1.02767672E+00
   9.15000000E+00   3.50000000E-01   5.00000000E-01  -1.02872343E+00
   9.25000000E+00   3.50000000E-01   5.00000000E-01  -1.02979019E+00
   9.35000000E+00   3.50000000E-01   5.00000000E-01  -1.03088269E+00
   9.45000000E+00   3.50000000E-01   5.00000000E-01  -1.03200895E+00
   9.55000000E+00   3.50000000E-01   5.00000000E-01  -1.03317882E+00
   9.65000000E+00   3.50000000E-01   5.00000000E-01  -1.03440192E+00
   9.75000000E+00   3.50000000E-01   5.00000000E-01  -1.03568076E+00
   9.85000000E+00   3.50000000E-01   5.00000000E-01  -1.03698365E+00
   9.95000000E+00   3.50000000E-01   5.00000000E-01  -1.03811797E+00
   5.00000000E-02   4.50000000E-01   5.00000000E-01  -1.00000008E+00
   1.50000000E-01   4.50000000E-01   5.00000000E-01  -1.00000014E+00
   2.50000000E-01   4.50000000E-01   5.00000000E-01  -1.00000028E+00
   3.50000000E-01   4.50000000E-01   5.00000000E-01  -1.00000052E+00
   4.50000000E-01   4.50000000E-01   5.00000000E-01  -1.00000090E+00
   5.50000000E-01   4.50000000E-01   5.00000000E-01  -1.00000132E+00
   6.50000000E-01   4.50000000E-01   5.00000000E-01  -1.00000187E+00
   7.50000000E-01   4.50000000E-01   5.00000000E-01  -1.00000230E+00
   8.50000000E-01   4.50000000E-01   5.00000000E-01  -1.00000279E+00
   9.50000000E-01   4.50000000E-01   5.00000000E-01  -1.00000344E+00
   1.05000000E+00   4.50000000E-01   5.00000000E-01  -1.00000435E+00
   1.15000000E+00   4.50000000E-01   5.00000000E-01  -1.00000559E+00
   1.25000000E+00   4.50000000E-01   5.00000000E-01  -1.00000733E+00
   1.35000000E+00   4.50000000E-01   5.00000000E-01  -1.00000977E+00
   1.45000000E+00   4.50000000E-01   5.00000000E-01  -1.00001322E+00
   1.55000000E+00   4.50000000E-01   5.00000000E-01  -1.00001813E+00
   1.65000000E+00   4.50000000E-01   5.00000000E-01  -1.00002500E+00
   1.75000000E+00   4.50000000E-01   5.00000000E-01  -1.00003434E+00
   1.85000000E+00   4.50000000E-01   5.00000000E-01  -1.00004671E+00
   1.95000000E+00   4.50000000E-01   5.00000000E-01  -1.00006262E+00
   2.05000000E+00   4.50000000E-01   5.00000000E-01  -1.00008260E+00
   2.15000000E+00   4.50000000E-01   5.00000000E-01  -1.00010706E+00
   2.25000000E+00   4.50000000E-01   5.00000000E-01  -1.00013625E+00
   2.35000000E+00   4.50000000E-01   5.00000000E-01  -1.00017008E+00
   2.45000000E+00   4.50000000E-01   5.00000000E-01  -1.00020792E+00
   2.55000000E+00   4.50000000E-01   5.00000000E-01  -1.00024835E+00
   2.65000000E+00   4.50000000E-01   5.00000000E-01  -1.00028905E+00
   2.75000000E+00   4.50000000E-01   5.00000000E-01  -1.00032728E+00
   2.85000000E+00   4.50000000E-01   5.00000000E-01  -1.00036208E+00
   2.95000000E+00   4.50000000E-01   5.00000000E-01  -1.00039782E+00
   3.05000000E+00   4.50000000E-01   5.00000000E-01  -1.00043712E+00
   3.15000000E+00   4.50000000E-01   5.00000000E-01  -1.00048097E+00