 TITLE = "Total Concentrations (log mol/kgw)" 
VARIABLES = "X"          "Y"              "Z"            "Br-"           
 ZONE I=         100 , J=          20 , K=           1  F=POINT
   5.00000000E-02   5.00000000E-02   5.00000000E-01  -1.00000004E+00
   1.50000000E-01   5.00000000E-02   5.00000000E-01  -1.00000013E+00
   2.50000000E-01   5.00000000E-02   5.00000000E-01  -1.00000032E+00
   3.50000000E-01   5.00000000E-02   5.00000000E-01  -1.00000064E+00
   4.50000000E-01   5.00000000E-02   5.00000000E-01  -1.00000114E+00
   5.50000000E-01   5.00000000E-02   5.00000000E-01  -1.00000186E+00
   6.50000000E-01   5.00000000E-02   5.00000000E-01  -1.00000288E+00
   7.50000000E-01   5.00000000E-02   5.00000000E-01  -1.00000426E+00
   8.50000000E-01   5.00000000E-02   5.00000000E-01  -1.00000611E+00
   9.50000000E-01   5.00000000E-02   5.00000000E-01  -1.00000852E+00
   1.05000000E+00   5.00000000E-02   5.00000000E-01  -1.00001161E+00
   1.15000000E+00   5.00000000E-02   5.00000000E-01  -1.00001552E+00
   1.25000000E+00   5.00000000E-02   5.00000000E-01  -1.00002041E+00
   1.35000000E+00   5.00000000E-02   5.00000000E-01  -1.00002650E+00
   1.45000000E+00   5.00000000E-02   5.00000000E-01  -1.00003405E+00
   1.55000000E+00   5.00000000E-02   5.00000000E-01  -1.00004340E+00
   1.65000000E+00   5.00000000E-02   5.00000000E-01  -1.00005498E+00
   1.75000000E+00   5.00000000E-02   5.00000000E-01  -1.00006935E+00
   1.85000000E+00   5.00000000E-02   5.00000000E-01  -1.00008720E+00
   1.95000000E+00   5.00000000E-02   5.00000000E-01  -1.00010938E+00
   2.05000000E+00   5.00000000E-02   5.00000000E-01  -1.00013694E+00
   2.15000000E+00   5.00000000E-02   5.00000000E-01  -1.00017113E+00
   2.25000000E+00   5.00000000E-02   5.00000000E-01  -1.00021343E+00
   2.35000000E+00   5.00000000E-02   5.00000000E-01  -1.00026555E+00
   2.45000000E+00   5.00000000E-02   5.00000000E-01  -1.00032948E+00
   2.55000000E+00   5.00000000E-02   5.00000000E-01  -1.00040745E+00
   2.65000000E+00   5.00000000E-02   5.00000000E-01  -1.00050203E+00
   2.75000000E+00   5.00000000E-02   5.00000000E-01  -1.00061618E+00
   2.85000000E+00   5.00000000E-02   5.00000000E-01  -1.00075336E+00
   2.95000000E+00   5.00000000E-02   5.00000000E-01  -1.00091759E+00
   3.05000000E+00   5.00000000E-02   5.00000000E-01  -1.00111345E+00
   3.15000000E+00   5.00000000E-02   5.00000000E-01  -1.00134595E+00
   3.25000000E+00   5.00000000E-02   5.00000000E-01  -1.00162050E+00
   3.35000000E+00   5.00000000E-02   5.00000000E-01  -1.00194292E+00
   3.45000000E+00   5.00000000E-02   5.00000000E-01  -1.00231956E+00
   3.55000000E+00   5.00000000E-02   5.00000000E-01  -1.00275740E+00
   3.65000000E+00   5.00000000E-02   5.00000000E-01  -1.00326449E+00
   3.75000000E+00   5.00000000E-02   5.00000000E-01  -1.00385107E+00
   3.85000000E+00   5.00000000E-02   5.00000000E-01  -1.00452811E+00
   3.95000000E+00   5.00000000E-02   5.00000000E-01  -1.00530724E+00
   4.05000000E+00   5.00000000E-02   5.00000000E-01  -1.00620149E+00
   4.15000000E+00   5.00000000E-02   5.00000000E-01  -1.00722542E+00
   4.25000000E+00   5.00000000E-02   5.00000000E-01  -1.00839531E+00
   4.35000000E+00   5.00000000E-02   5.00000000E-01  -1.00972930E+00
   4.45000000E+00   5.00000000E-02   5.00000000E-01  -1.01124745E+00
   4.55000000E+00   5.00000000E-02   5.00000000E-01  -1.01297185E+00
   4.65000000E+00   5.00000000E-02   5.00000000E-01  -1.01492660E+00
   4.75000000E+00   5.00000000E-02   5.00000000E-01  -1.01713781E+00
   4.85000000E+00   5.00000000E-02   5.00000000E-01  -1.01963356E+00
   4.95000000E+00   5.00000000E-02   5.00000000E-01  -1.02244387E+00
   5.05000000E+00   5.00000000E-02   5.00000000E-01  -1.02560060E+00
   5.15000000E+00   5.00000000E-02   5.00000000E-01  -1.02913719E+00
   5.25000000E+00   5.00000000E-02   5.00000000E-01  -1.03308760E+00
   5.35000000E+00   5.00000000E-02   5.00000000E-01  -1.03748301E+00
   5.45000000E+00   5.00000000E-02   5.00000000E-01  -1.04234361E+00
   5.55000000E+00   5.00000000E-02   5.00000000E-01  -1.04766252E+00
   5.65000000E+00   5.00000000E-02   5.00000000E-01  -1.05338900E+00
   5.75000000E+00   5.00000000E-02   5.00000000E-01  -1.05945110E+00
   5.85000000E+00   5.00000000E-02   5.00000000E-01  -1.06585688E+00
   5.95000000E+00   5.00000000E-02   5.00000000E-01  -1.07266273E+00
   6.05000000E+00   5.00000000E-02   5.00000000E-01  -1.07993746E+00
   6.15000000E+00   5.00000000E-02   5.00000000E-01  -1.08774731E+00
   6.25000000E+00   5.00000000E-02   5.00000000E-01  -1.09615283E+00
   6.35000000E+00   5.00000000E-02   5.00000000E-01  -1.10520977E+00
   6.45000000E+00   5.00000000E-02   5.00000000E-01  -1.11497048E+00
   6.55000000E+00   5.00000000E-02   5.00000000E-01  -1.12548504E+00
   6.65000000E+00   5.00000000E-02   5.00000000E-01  -1.13680187E+00
   6.75000000E+00   5.00000000E-02   5.00000000E-01  -1.14896804E+00
   6.85000000E+00   5.00000000E-02   5.00000000E-01  -1.16202964E+00
   6.95000000E+00   5.00000000E-02   5.00000000E-01  -1.17603171E+00
   7.05000000E+00   5.00000000E-02   5.00000000E-01  -1.19101774E+00
   7.15000000E+00   5.00000000E-02   5.00000000E-01  -1.20703045E+00
   7.25000000E+00   5.00000000E-02   5.00000000E-01  -1.22411238E+00
   7.35000000E+00   5.00000000E-02   5.00000000E-01  -1.24230730E+00
   7.45000000E+00   5.00000000E-02   5.00000000E-01  -1.26166290E+00
   7.55000000E+00   5.00000000E-02   5.00000000E-01  -1.28223587E+00
   7.65000000E+00   5.00000000E-02   5.00000000E-01  -1.30410091E+00
   7.75000000E+00   5.00000000E-02   5.00000000E-01  -1.32736503E+00
   7.85000000E+00   5.00000000E-02   5.00000000E-01  -1.35218587E+00
   7.95000000E+00   5.00000000E-02   5.00000000E-01  -1.37878069E+00
   8.05000000E+00   5.00000000E-02   5.00000000E-01  -1.40738620E+00
   8.15000000E+00   5.00000000E-02   5.00000000E-01  -1.43812893E+00
   8.25000000E+00   5.00000000E-02   5.00000000E-01  -1.47102000E+00
   8.35000000E+00   5.00000000E-02   5.00000000E-01  -1.50600214E+00
   8.45000000E+00   5.00000000E-02   5.00000000E-01  -1.54299288E+00
   8.55000000E+00   5.00000000E-02   5.00000000E-01  -1.58190947E+00
   8.65000000E+00   5.00000000E-02   5.00000000E-01  -1.62267907E+00
   8.75000000E+00   5.00000000E-02   5.00000000E-01  -1.66524075E+00
   8.85000000E+00   5.00000000E-02   5.00000000E-01  -1.70954367E+00
   8.95000000E+00   5.00000000E-02   5.00000000E-01  -1.75554356E+00
   9.05000000E+00   5.00000000E-02   5.00000000E-01  -1.80319818E+00
   9.15000000E+00   5.00000000E-02   5.00000000E-01  -1.85246214E+00
   9.25000000E+00   5.00000000E-02   5.00000000E-01  -1.90328097E+00
   9.35000000E+00   5.00000000E-02   5.00000000E-01  -1.95558424E+00
   9.45000000E+00   5.00000000E-02   5.00000000E-01  -2.00927716E+00
   9.55000000E+00   5.00000000E-02   5.00000000E-01  -2.06422919E+00
   9.65000000E+00   5.00000000E-02   5.00000000E-01  -2.12024854E+00
   9.75000000E+00   5.00000000E-02   5.00000000E-01  -2.17696343E+00
   9.85000000E+00   5.00000000E-02   5.00000000E-01  -2.23307476E+00
   9.95000000E+00   5.00000000E-02   5.00000000E-01  -2.28150658E+00
   5.00000000E-02   1.50000000E-01   5.00000000E-01  -1.00000023E+00
   1.50000000E-01   1.50000000E-01   5.00000000E-01  -1.00000063E+00
   2.50000000E-01   1.50000000E-01   5.00000000E-01  -1.00000132E+00
   3.50000000E-01   1.50000000E-01   5.00000000E-01  -1.00000236E+00
   4.50000000E-01   1.50000000E-01   5.00000000E-01  -1.00000380E+00
   5.50000000E-01   1.50000000E-01   5.00000000E-01  -1.00000564E+00
   6.50000000E-01   1.50000000E-01   5.00000000E-01  -1.00000788E+00
   7.50000000E-01   1.50000000E-01   5.00000000E-01  -1.00001069E+00
   8.50000000E-01   1.50000000E-01   5.00000000E-01  -1.00001420E+00
   9.50000000E-01   1.50000000E-01   5.00000000E-01  -1.00001856E+00
   1.05000000E+00   1.50000000E-01   5.00000000E-01  -1.00002389E+00
   1.15000000E+00   1.50000000E-01   5.00000000E-01  -1.00003039E+00
   1.25000000E+00   1.50000000E-01   5.00000000E-01  -1.00003833E+00
   1.35000000E+00   1.50000000E-01   5.00000000E-01  -1.00004807E+00
   1.45000000E+00   1.50000000E-01   5.00000000E-01  -1.00006008E+00
   1.55000000E+00   1.50000000E-01   5.00000000E-01  -1.00007499E+00
   1.65000000E+00   1.50000000E-01   5.00000000E-01  -1.00009364E+00
   1.75000000E+00   1.50000000E-01   5.00000000E-01  -1.00011706E+00
   1.85000000E+00   1.50000000E-01   5.00000000E-01  -1.00014656E+00
   1.95000000E+00   1.50000000E-01   5.00000000E-01  -1.00018369E+00
   2.05000000E+00   1.50000000E-01   5.00000000E-01  -1.00023026E+00
   2.15000000E+00   1.50000000E-01   5.00000000E-01  -1.00028835E+00
   2.25000000E+00   1.50000000E-01   5.00000000E-01  -1.00036022E+00
   2.35000000E+00   1.50000000E-01   5.00000000E-01  -1.00044828E+00
   2.45000000E+00   1.50000000E-01   5.00000000E-01  -1.00055497E+00
   2.55000000E+00   1.50000000E-01   5.00000000E-01  -1.00068274E+00
   2.65000000E+00   1.50000000E-01   5.00000000E-01  -1.00083405E+00
   2.75000000E+00   1.50000000E-01   5.00000000E-01  -1.00101172E+00
   2.85000000E+00   1.50000000E-01   5.00000000E-01  -1.00121940E+00
   2.95000000E+00   1.50000000E-01   5.00000000E-01  -1.00146200E+00
   3.05000000E+00   1.50000000E-01   5.00000000E-01  -1.00174531E+00
   3.15000000E+00   1.50000000E-01   5.00000000E-01  -1.00207547E+00
   3.25000000E+00   1.50000000E-01   5.00000000E-01  -1.00245875E+00
   3.35000000E+00   1.50000000E-01   5.00000000E-01  -1.00290149E+00
   3.45000000E+00   1.50000000E-01   5.00000000E-01  -1.00341029E+00
   3.55000000E+00   1.50000000E-01   5.00000000E-01  -1.00399239E+00
   3.65000000E+00   1.50000000E-01   5.00000000E-01  -1.00465656E+00
   3.75000000E+00   1.50000000E-01   5.00000000E-01  -1.00541631E+00
   3.85000000E+00   1.50000000E-01   5.00000000E-01  -1.00628340E+00
   3.95000000E+00   1.50000000E-01   5.00000000E-01  -1.00726951E+00
   4.05000000E+00   1.50000000E-01   5.00000000E-01  -1.00838783E+00
   4.15000000E+00   1.50000000E-01   5.00000000E-01  -1.00965329E+00
   4.25000000E+00   1.50000000E-01   5.00000000E-01  -1.01108271E+00
   4.35000000E+00   1.50000000E-01   5.00000000E-01  -1.01269497E+00
   4.45000000E+00   1.50000000E-01   5.00000000E-01  -1.01451112E+00
   4.55000000E+00   1.50000000E-01   5.00000000E-01  -1.01655446E+00
   4.65000000E+00   1.50000000E-01   5.00000000E-01  -1.01885070E+00
   4.75000000E+00   1.50000000E-01   5.00000000E-01  -1.02142820E+00
   4.85000000E+00   1.50000000E-01   5.00000000E-01  -1.02431832E+00
   4.95000000E+00   1.50000000E-01   5.00000000E-01  -1.02755630E+00
   5.05000000E+00   1.50000000E-01   5.00000000E-01  -1.03118249E+00
   5.15000000E+00   1.50000000E-01   5.00000000E-01  -1.03524412E+00
   5.25000000E+00   1.50000000E-01   5.00000000E-01  -1.03979657E+00
   5.35000000E+00   1.50000000E-01   5.00000000E-01  -1.04490061E+00
   5.45000000E+00   1.50000000E-01   5.00000000E-01  -1.05060545E+00
   5.55000000E+00   1.50000000E-01   5.00000000E-01  -1.05689552E+00
   5.65000000E+00   1.50000000E-01   5.00000000E-01  -1.06358750E+00
   5.75000000E+00   1.50000000E-01   5.00000000E-01  -1.07032946E+00
   5.85000000E+00   1.50000000E-01   5.00000000E-01  -1.07717405E+00
   5.95000000E+00   1.50000000E-01   5.00000000E-01  -1.08428111E+00
   6.05000000E+00   1.50000000E-01   5.00000000E-01  -1.09179710E+00
   6.15000000E+00   1.50000000E-01   5.00000000E-01  -1.09983671E+00
   6.25000000E+00   1.50000000E-01   5.00000000E-01  -1.10848960E+00
   6.35000000E+00   1.50000000E-01   5.00000000E-01  -1.11782875E+00
   6.45000000E+00   1.50000000E-01   5.00000000E-01  -1.12791615E+00
   6.55000000E+00   1.50000000E-01   5.00000000E-01  -1.13880637E+00
   6.65000000E+00   1.50000000E-01   5.00000000E-01  -1.15054851E+00
   6.75000000E+00   1.50000000E-01   5.00000000E-01  -1.16318754E+00
   6.85000000E+00   1.50000000E-01   5.00000000E-01  -1.17676566E+00
   6.95000000E+00   1.50000000E-01   5.00000000E-01  -1.19132242E+00
   7.05000000E+00   1.50000000E-01   5.00000000E-01  -1.20689380E+00
   7.15000000E+00   1.50000000E-01   5.00000000E-01  -1.22351333E+00
   7.25000000E+00   1.50000000E-01   5.00000000E-01  -1.24121194E+00
   7.35000000E+00   1.50000000E-01   5.00000000E-01  -1.26001769E+00
   7.45000000E+00   1.50000000E-01   5.00000000E-01  -1.27995586E+00
   7.55000000E+00   1.50000000E-01   5.00000000E-01  -1.30105046E+00
   7.65000000E+00   1.50000000E-01   5.00000000E-01  -1.32333095E+00
   7.75000000E+00   1.50000000E-01   5.00000000E-01  -1.34685271E+00
   7.85000000E+00   1.50000000E-01   5.00000000E-01  -1.37174509E+00
   7.95000000E+00   1.50000000E-01   5.00000000E-01  -1.39828831E+00
   8.05000000E+00   1.50000000E-01   5.00000000E-01  -1.42692151E+00
   8.15000000E+00   1.50000000E-01   5.00000000E-01  -1.45781622E+00
   8.25000000E+00   1.50000000E-01   5.00000000E-01  -1.49094376E+00
   8.35000000E+00   1.50000000E-01   5.00000000E-01  -1.52619584E+00
   8.45000000E+00   1.50000000E-01   5.00000000E-01  -1.56345248E+00
   8.55000000E+00   1.50000000E-01   5.00000000E-01  -1.60260719E+00
   8.65000000E+00   1.50000000E-01   5.00000000E-01  -1.64357234E+00
   8.75000000E+00   1.50000000E-01   5.00000000E-01  -1.68627736E+00
   8.85000000E+00   1.50000000E-01   5.00000000E-01  -1.73066511E+00
   8.95000000E+00   1.50000000E-01   5.00000000E-01  -1.77668735E+00
   9.05000000E+00   1.50000000E-01   5.00000000E-01  -1.82429982E+00
   9.15000000E+00   1.50000000E-01   5.00000000E-01  -1.87345688E+00
   9.25000000E+00   1.50000000E-01   5.00000000E-01  -1.92410554E+00
   9.35000000E+00   1.50000000E-01   5.00000000E-01  -1.97617853E+00
   9.45000000E+00   1.50000000E-01   5.00000000E-01  -2.02958554E+00
   9.55000000E+00   1.50000000E-01   5.00000000E-01  -2.08420087E+00
   9.65000000E+00   1.50000000E-01   5.00000000E-01  -2.13983636E+00
   9.75000000E+00   1.50000000E-01   5.00000000E-01  -2.19612181E+00
   9.85000000E+00   1.50000000E-01   5.00000000E-01  -2.25176361E+00
   9.95000000E+00   1.50000000E-01   5.00000000E-01  -2.29974690E+00
   5.00000000E-02   2.50000000E-01   5.00000000E-01  -1.00000140E+00
   1.50000000E-01   2.50000000E-01   5.00000000E-01  -1.00000336E+00
   2.50000000E-01   2.50000000E-01   5.00000000E-01  -1.00000621E+00
   3.50000000E-01   2.50000000E-01   5.00000000E-01  -1.00000997E+00
   4.50000000E-01   2.50000000E-01   5.00000000E-01  -1.00001452E+00
   5.50000000E-01   2.50000000E-01   5.00000000E-01  -1.00001945E+00
   6.50000000E-01   2.50000000E-01   5.00000000E-01  -1.00002424E+00
   7.50000000E-01   2.50000000E-01   5.00000000E-01  -1.00003000E+00
   8.50000000E-01   2.50000000E-01   5.00000000E-01  -1.00003700E+00
   9.50000000E-01   2.50000000E-01   5.00000000E-01  -1.00004541E+00
   1.05000000E+00   2.50000000E-01   5.00000000E-01  -1.00005553E+00
   1.15000000E+00   2.50000000E-01   5.00000000E-01  -1.00006779E+00
   1.25000000E+00   2.50000000E-01   5.00000000E-01  -1.00008283E+00
   1.35000000E+00   2.50000000E-01   5.00000000E-01  -1.00010159E+00
   1.45000000E+00   2.50000000E-01   5.00000000E-01  -1.00012529E+00
   1.55000000E+00   2.50000000E-01   5.00000000E-01  -1.00015562E+00
   1.65000000E+00   2.50000000E-01   5.00000000E-01  -1.00019472E+00
   1.75000000E+00   2.50000000E-01   5.00000000E-01  -1.00024522E+00
   1.85000000E+00   2.50000000E-01   5.00000000E-01  -1.00031024E+00
   1.95000000E+00   2.50000000E-01   5.00000000E-01  -1.00039330E+00
   2.05000000E+00   2.50000000E-01   5.00000000E-01  -1.00049820E+00
   2.15000000E+00   2.50000000E-01   5.00000000E-01  -1.00062889E+00
   2.25000000E+00   2.50000000E-01   5.00000000E-01  -1.00078916E+00
   2.35000000E+00   2.50000000E-01   5.00000000E-01  -1.00098232E+00
   2.45000000E+00   2.50000000E-01   5.00000000E-01  -1.00121073E+00
   2.55000000E+00   2.50000000E-01   5.00000000E-01  -1.00147547E+00
   2.65000000E+00   2.50000000E-01   5.00000000E-01  -1.00177648E+00
   2.75000000E+00   2.50000000E-01   5.00000000E-01  -1.00211385E+00
   2.85000000E+00   2.50000000E-01   5.00000000E-01  -1.00249067E+00
   2.95000000E+00   2.50000000E-01   5.00000000E-01  -1.00291535E+00
   3.05000000E+00   2.50000000E-01   5.00000000E-01  -1.00339798E+00
   3.15000000E+00   2.50000000E-01   5.00000000E-01  -1.00394790E+00
   3.25000000E+00   2.50000000E-01   5.00000000E-01  -1.00457302E+00
   3.35000000E+00   2.50000000E-01   5.00000000E-01  -1.00528019E+00
   3.45000000E+00   2.50000000E-01   5.00000000E-01  -1.00607584E+00
   3.55000000E+00   2.50000000E-01   5.00000000E-01  -1.00696707E+00
   3.65000000E+00   2.50000000E-01   5.00000000E-01  -1.00796383E+00
   3.75000000E+00   2.50000000E-01   5.00000000E-01  -1.00908586E+00
   3.85000000E+00   2.50000000E-01   5.00000000E-01  -1.01034327E+00
   3.95000000E+00   2.50000000E-01   5.00000000E-01  -1.01174724E+00
   4.05000000E+00   2.50000000E-01   5.00000000E-01  -1.01331091E+00
   4.15000000E+00   2.50000000E-01   5.00000000E-01  -1.01504959E+00
   4.25000000E+00   2.50000000E-01   5.00000000E-01  -1.01698088E+00
   4.35000000E+00   2.50000000E-01   5.00000000E-01  -1.01912475E+00
   4.45000000E+00   2.50000000E-01   5.00000000E-01  -1.02150362E+00
   4.55000000E+00   2.50000000E-01   5.00000000E-01  -1.02414244E+00
   4.65000000E+00   2.50000000E-01   5.00000000E-01  -1.02706891E+00
   4.75000000E+00   2.50000000E-01   5.00000000E-01  -1.03031389E+00
   4.85000000E+00   2.50000000E-01   5.00000000E-01  -1.03391239E+00
   4.95000000E+00   2.50000000E-01   5.00000000E-01  -1.03790549E+00
   5.05000000E+00   2.50000000E-01   5.00000000E-01  -1.04234389E+00
   5.15000000E+00   2.50000000E-01   5.00000000E-01  -1.04729389E+00
   5.25000000E+00   2.50000000E-01   5.00000000E-01  -1.05284622E+00
   5.35000000E+00   2.50000000E-01   5.00000000E-01  -1.05912489E+00
   5.45000000E+00   2.50000000E-01   5.00000000E-01  -1.06627835E+00
   5.55000000E+00   2.50000000E-01   5.00000000E-01  -1.07438112E+00
   5.65000000E+00   2.50000000E-01   5.00000000E-01  -1.08305167E+00
   5.75000000E+00   2.50000000E-01   5.00000000E-01  -1.09089381E+00
   5.85000000E+00   2.50000000E-01   5.00000000E-01  -1.09845682E+00
   5.95000000E+00   2.50000000E-01   5.00000000E-01  -1.10619711E+00
   6.05000000E+00   2.50000000E-01   5.00000000E-01  -1.11439153E+00
   6.15000000E+00   2.50000000E-01   5.00000000E-01  -1.12321475E+00
   6.25000000E+00   2.50000000E-01   5.00000000E-01  -1.13278781E+00
   6.35000000E+00   2.50000000E-01   5.00000000E-01  -1.14319498E+00
   6.45000000E+00   2.50000000E-01   5.00000000E-01  -1.15449528E+00
   6.55000000E+00   2.50000000E-01   5.00000000E-01  -1.16673060E+00
   6.65000000E+00   2.50000000E-01   5.00000000E-01  -1.17993159E+00
   6.75000000E+00   2.50000000E-01   5.00000000E-01  -1.19412177E+00
   6.85000000E+00   2.50000000E-01   5.00000000E-01  -1.20932080E+00
   6.95000000E+00   2.50000000E-01   5.00000000E-01  -1.22554558E+00
   7.05000000E+00   2.50000000E-01   5.00000000E-01  -1.24280912E+00
   7.15000000E+00   2.50000000E-01   5.00000000E-01  -1.26112085E+00
   7.25000000E+00   2.50000000E-01   5.00000000E-01  -1.28048385E+00
   7.35000000E+00   2.50000000E-01   5.00000000E-01  -1.30088964E+00
   7.45000000E+00   2.50000000E-01   5.00000000E-01  -1.32230918E+00
   7.55000000E+00   2.50000000E-01   5.00000000E-01  -1.34468017E+00
   7.65000000E+00   2.50000000E-01   5.00000000E-01  -1.36789626E+00
   7.75000000E+00   2.50000000E-01   5.00000000E-01  -1.39182456E+00
   7.85000000E+00   2.50000000E-01   5.00000000E-01  -1.41642481E+00
   7.95000000E+00   2.50000000E-01   5.00000000E-01  -1.44209453E+00
   8.05000000E+00   2.50000000E-01   5.00000000E-01  -1.47019259E+00
   8.15000000E+00   2.50000000E-01   5.00000000E-01  -1.50099617E+00
   8.25000000E+00   2.50000000E-01   5.00000000E-01  -1.53431831E+00
   8.35000000E+00   2.50000000E-01   5.00000000E-01  -1.56989146E+00
   8.45000000E+00   2.50000000E-01   5.00000000E-01  -1.60748813E+00
   8.55000000E+00   2.50000000E-01   5.00000000E-01  -1.64693571E+00
   8.65000000E+00   2.50000000E-01   5.00000000E-01  -1.68810543E+00
   8.75000000E+00   2.50000000E-01   5.00000000E-01  -1.73090025E+00
   8.85000000E+00   2.50000000E-01   5.00000000E-01  -1.77524640E+00
   8.95000000E+00   2.50000000E-01   5.00000000E-01  -1.82108678E+00
   9.05000000E+00   2.50000000E-01   5.00000000E-01  -1.86837443E+00
   9.15000000E+00   2.50000000E-01   5.00000000E-01  -1.91706604E+00
   9.25000000E+00   2.50000000E-01   5.00000000E-01  -1.96711560E+00
   9.35000000E+00   2.50000000E-01   5.00000000E-01  -2.01846737E+00
   9.45000000E+00   2.50000000E-01   5.00000000E-01  -2.07104631E+00
   9.55000000E+00   2.50000000E-01   5.00000000E-01  -2.12474330E+00
   9.65000000E+00   2.50000000E-01   5.00000000E-01  -2.17938387E+00
   9.75000000E+00   2.50000000E-01   5.00000000E-01  -2.23460569E+00
   9.85000000E+00   2.50000000E-01   5.00000000E-01  -2.28912957E+00
   9.95000000E+00   2.50000000E-01   5.00000000E-01  -2.33607698E+00
   5.00000000E-02   3.50000000E-01   5.00000000E-01  -1.00000928E+00
   1.50000000E-01   3.50000000E-01   5.00000000E-01  -1.00001769E+00
   2.50000000E-01   3.50000000E-01   5.00000000E-01  -1.00002771E+00
   3.50000000E-01   3.50000000E-01   5.00000000E-01  -1.00003933E+00
   4.50000000E-01   3.50000000E-01   5.00000000E-01  -1.00005158E+00
   5.50000000E-01   3.50000000E-01   5.00000000E-01  -1.00006190E+00
   6.50000000E-01   3.50000000E-01   5.00000000E-01  -1.00006578E+00
   7.50000000E-01   3.50000000E-01   5.00000000E-01  -1.00007402E+00
   8.50000000E-01   3.50000000E-01   5.00000000E-01  -1.00008555E+00
   9.50000000E-01   3.50000000E-01   5.00000000E-01  -1.00010026E+00
   1.05000000E+00   3.50000000E-01   5.00000000E-01  -1.00011887E+00
   1.15000000E+00   3.50000000E-01   5.00000000E-01  -1.00014270E+00
   1.25000000E+00   3.50000000E-01   5.00000000E-01  -1.00017368E+00
   1.35000000E+00   3.50000000E-01   5.00000000E-01  -1.00021451E+00
   1.45000000E+00   3.50000000E-01   5.00000000E-01  -1.00026892E+00
   1.55000000E+00   3.50000000E-01   5.00000000E-01  -1.00034189E+00
   1.65000000E+00   3.50000000E-01   5.00000000E-01  -1.00043946E+00
   1.75000000E+00   3.50000000E-01   5.00000000E-01  -1.00056853E+00
   1.85000000E+00   3.50000000E-01   5.00000000E-01  -1.00073652E+00
   1.95000000E+00   3.50000000E-01   5.00000000E-01  -1.00095102E+00
   2.05000000E+00   3.50000000E-01   5.00000000E-01  -1.00121942E+00
   2.15000000E+00   3.50000000E-01   5.00000000E-01  -1.00154825E+00
   2.25000000E+00   3.50000000E-01   5.00000000E-01  -1.00194243E+00
   2.35000000E+00   3.50000000E-01   5.00000000E-01  -1.00240403E+00
   2.45000000E+00   3.50000000E-01   5.00000000E-01  -1.00293073E+00
   2.55000000E+00   3.50000000E-01   5.00000000E-01  -1.00351440E+00
   2.65000000E+00   3.50000000E-01   5.00000000E-01  -1.00414125E+00
   2.75000000E+00   3.50000000E-01   5.00000000E-01  -1.00479704E+00
   2.85000000E+00   3.50000000E-01   5.00000000E-01  -1.00548077E+00
   2.95000000E+00   3.50000000E-01   5.00000000E-01  -1.00621912E+00
   3.05000000E+00   3.50000000E-01   5.00000000E-01  -1.00703764E+00
   3.15000000E+00   3.50000000E-01   5.00000000E-01  -1.00795307E+00
   3.25000000E+00   3.50000000E-01   5.00000000E-01  -1.00897478E+00
   3.35000000E+00   3.50000000E-01   5.00000000E-01  -1.01010816E+00
   3.45000000E+00   3.50000000E-01   5.00000000E-01  -1.01135762E+00
   3.55000000E+00   3.50000000E-01   5.00000000E-01  -1.01272928E+00
   3.65000000E+00   3.50000000E-01   5.00000000E-01  -1.01423656E+00
   3.75000000E+00   3.50000000E-01   5.00000000E-01  -1.01590383E+00
   3.85000000E+00   3.50000000E-01   5.00000000E-01  -1.01773527E+00
   3.95000000E+00   3.50000000E-01   5.00000000E-01  -1.01974089E+00
   4.05000000E+00   3.50000000E-01   5.00000000E-01  -1.02193367E+00
   4.15000000E+00   3.50000000E-01   5.00000000E-01  -1.02432951E+00
   4.25000000E+00   3.50000000E-01   5.00000000E-01  -1.02694709E+00
   4.35000000E+00   3.50000000E-01   5.00000000E-01  -1.02980778E+00
   4.45000000E+00   3.50000000E-01   5.00000000E-01  -1.03293547E+00
   4.55000000E+00   3.50000000E-01   5.00000000E-01  -1.03635654E+00
   4.65000000E+00   3.50000000E-01   5.00000000E-01  -1.04009985E+00
   4.75000000E+00   3.50000000E-01   5.00000000E-01  -1.04419715E+00
   4.85000000E+00   3.50000000E-01   5.00000000E-01  -1.04868421E+00
   4.95000000E+00   3.50000000E-01   5.00000000E-01  -1.05360342E+00
   5.05000000E+00   3.50000000E-01   5.00000000E-01  -1.05900926E+00
   5.15000000E+00   3.50000000E-01   5.00000000E-01  -1.06497912E+00
   5.25000000E+00   3.50000000E-01   5.00000000E-01  -1.07163446E+00
   5.35000000E+00   3.50000000E-01   5.00000000E-01  -1.07918047E+00
   5.45000000E+00   3.50000000E-01   5.00000000E-01  -1.08796739E+00
   5.55000000E+00   3.50000000E-01   5.00000000E-01  -1.09849132E+00
   5.65000000E+00   3.50000000E-01   5.00000000E-01  -1.11066836E+00
   5.75000000E+00   3.50000000E-01   5.00000000E-01  -1.11965333E+00
   5.85000000E+00   3.50000000E-01   5.00000000E-01  -1.12848860E+00
   5.95000000E+00   3.50000000E-01   5.00000000E-01  -1.13796056E+00
   6.05000000E+00   3.50000000E-01   5.00000000E-01  -1.14836254E+00
   6.15000000E+00   3.50000000E-01   5.00000000E-01  -1.15986953E+00
   6.25000000E+00   3.50000000E-01   5.00000000E-01  -1.17261300E+00
   6.35000000E+00   3.50000000E-01   5.00000000E-01  -1.18658693E+00
   6.45000000E+00   3.50000000E-01   5.00000000E-01  -1.20173084E+00
   6.55000000E+00   3.50000000E-01   5.00000000E-01  -1.21797438E+00
   6.65000000E+00   3.50000000E-01   5.00000000E-01  -1.23525563E+00
   6.75000000E+00   3.50000000E-01   5.00000000E-01  -1.25352633E+00
   6.85000000E+00   3.50000000E-01   5.00000000E-01  -1.27275155E+00
   6.95000000E+00   3.50000000E-01   5.00000000E-01  -1.29290673E+00
   7.05000000E+00   3.50000000E-01   5.00000000E-01  -1.31397323E+00
   7.15000000E+00   3.50000000E-01   5.00000000E-01  -1.33593249E+00
   7.25000000E+00   3.50000000E-01   5.00000000E-01  -1.35875617E+00
   7.35000000E+00   3.50000000E-01   5.00000000E-01  -1.38238873E+00
   7.45000000E+00   3.50000000E-01   5.00000000E-01  -1.40671475E+00
   7.55000000E+00   3.50000000E-01   5.00000000E-01  -1.43149914E+00
   7.65000000E+00   3.50000000E-01   5.00000000E-01  -1.45629213E+00
   7.75000000E+00   3.50000000E-01   5.00000000E-01  -1.48034492E+00
   7.85000000E+00   3.50000000E-01   5.00000000E-01  -1.50277405E+00
   7.95000000E+00   3.50000000E-01   5.00000000E-01  -1.52353413E+00
   8.05000000E+00   3.50000000E-01   5.00000000E-01  -1.54828561E+00
   8.15000000E+00   3.50000000E-01   5.00000000E-01  -1.57722259E+00
   8.25000000E+00   3.50000000E-01   5.00000000E-01  -1.60951030E+00
   8.35000000E+00   3.50000000E-01   5.00000000E-01  -1.64443659E+00
   8.45000000E+00   3.50000000E-01   5.00000000E-01  -1.68153125E+00
   8.55000000E+00   3.50000000E-01   5.00000000E-01  -1.72048828E+00
   8.65000000E+00   3.50000000E-01   5.00000000E-01  -1.76110071E+00
   8.75000000E+00   3.50000000E-01   5.00000000E-01  -1.80321477E+00
   8.85000000E+00   3.50000000E-01   5.00000000E-01  -1.84671658E+00
   8.95000000E+00   3.50000000E-01   5.00000000E-01  -1.89152987E+00
   9.05000000E+00   3.50000000E-01   5.00000000E-01  -1.93760345E+00
   9.15000000E+00   3.50000000E-01   5.00000000E-01  -1.98489797E+00
   9.25000000E+00   3.50000000E-01   5.00000000E-01  -2.03337899E+00
   9.35000000E+00   3.50000000E-01   5.00000000E-01  -2.08301064E+00
   9.45000000E+00   3.50000000E-01   5.00000000E-01  -2.13374594E+00
   9.55000000E+00   3.50000000E-01   5.00000000E-01  -2.18550822E+00
   9.65000000E+00   3.50000000E-01   5.00000000E-01  -2.23815133E+00
   9.75000000E+00   3.50000000E-01   5.00000000E-01  -2.29132935E+00
   9.85000000E+00   3.50000000E-01   5.00000000E-01  -2.34378810E+00
   9.95000000E+00   3.50000000E-01   5.00000000E-01  -2.38888080E+00
   5.00000000E-02   4.50000000E-01   5.00000000E-01  -1.00005400E+00
   1.50000000E-01   4.50000000E-01   5.00000000E-01  -1.00006642E+00
   2.50000000E-01   4.50000000E-01   5.00000000E-01  -1.00008593E+00
   3.50000000E-01   4.50000000E-01   5.00000000E-01  -1.00010872E+00
   4.50000000E-01   4.50000000E-01   5.00000000E-01  -1.00013019E+00
   5.50000000E-01   4.50000000E-01   5.00000000E-01  -1.00014159E+00
   6.50000000E-01   4.50000000E-01   5.00000000E-01  -1.00012278E+00
   7.50000000E-01   4.50000000E-01   5.00000000E-01  -1.00014014E+00
   8.50000000E-01   4.50000000E-01   5.00000000E-01  -1.00016238E+00
   9.50000000E-01   4.50000000E-01   5.00000000E-01  -1.00019211E+00
   1.05000000E+00   4.50000000E-01   5.00000000E-01  -1.00023276E+00
   1.15000000E+00   4.50000000E-01   5.00000000E-01  -1.00028872E+00
   1.25000000E+00   4.50000000E-01   5.00000000E-01  -1.00036581E+00
   1.35000000E+00   4.50000000E-01   5.00000000E-01  -1.00047242E+00
   1.45000000E+00   4.50000000E-01   5.00000000E-01  -1.00062067E+00
   1.55000000E+00   4.50000000E-01   5.00000000E-01  -1.00082614E+00
   1.65000000E+00   4.50000000E-01   5.00000000E-01  -1.00110521E+00
   1.75000000E+00   4.50000000E-01   5.00000000E-01  -1.00147368E+00
   1.85000000E+00   4.50000000E-01   5.00000000E-01  -1.00194597E+00
   1.95000000E+00   4.50000000E-01   5.00000000E-01  -1.00253456E+00
   2.05000000E+00   4.50000000E-01   5.00000000E-01  -1.00324930E+00
   2.15000000E+00   4.50000000E-01   5.00000000E-01  -1.00409623E+00
   2.25000000E+00   4.50000000E-01   5.00000000E-01  -1.00507554E+00
   2.35000000E+00   4.50000000E-01   5.00000000E-01  -1.00617813E+00
   2.45000000E+00   4.50000000E-01   5.00000000E-01  -1.00738048E+00
   2.55000000E+00   4.50000000E-01   5.00000000E-01  -1.00863853E+00
   2.65000000E+00   4.50000000E-01   5.00000000E-01  -1.00988551E+00
   2.75000000E+00   4.50000000E-01   5.00000000E-01  -1.01104785E+00
   2.85000000E+00   4.50000000E-01   5.00000000E-01  -1.01210687E+00
   2.95000000E+00   4.50000000E-01   5.00000000E-01  -1.01320132E+00
   3.05000000E+00   4.50000000E-01   5.00000000E-01  -1.01441223E+00
   3.15000000E+00   4.50000000E-01   5.00000000E-01  -1.01576885E+00