 TITLE = "Total Concentrations (log mol/kgw)" 
VARIABLES = "X"          "Y"              "Z"            "Br-"           
 ZONE I=         100 , J=          20 , K=           1  F=POINT
   5.00000000E-02   5.00000000E-02   5.00000000E-01  -1.02007690E+00
   1.50000000E-01   5.00000000E-02   5.00000000E-01  -1.05682527E+00
   2.50000000E-01   5.00000000E-02   5.00000000E-01  -1.12213117E+00
   3.50000000E-01   5.00000000E-02   5.00000000E-01  -1.22152308E+00
   4.50000000E-01   5.00000000E-02   5.00000000E-01  -1.35766179E+00
   5.50000000E-01   5.00000000E-02   5.00000000E-01  -1.53090989E+00
   6.50000000E-01   5.00000000E-02   5.00000000E-01  -1.73970117E+00
   7.50000000E-01   5.00000000E-02   5.00000000E-01  -1.97946998E+00
   8.50000000E-01   5.00000000E-02   5.00000000E-01  -2.23807939E+00
   9.50000000E-01   5.00000000E-02   5.00000000E-01  -2.49246873E+00
   1.05000000E+00   5.00000000E-02   5.00000000E-01  -2.70913569E+00
   1.15000000E+00   5.00000000E-02   5.00000000E-01  -2.85927981E+00
   1.25000000E+00   5.00000000E-02   5.00000000E-01  -2.94155450E+00
   1.35000000E+00   5.00000000E-02   5.00000000E-01  -2.97834860E+00
   1.45000000E+00   5.00000000E-02   5.00000000E-01  -2.99260576E+00
   1.55000000E+00   5.00000000E-02   5.00000000E-01  -2.99762627E+00
   1.65000000E+00   5.00000000E-02   5.00000000E-01  -2.99927640E+00
   1.75000000E+00   5.00000000E-02   5.00000000E-01  -2.99978936E+00
   1.85000000E+00   5.00000000E-02   5.00000000E-01  -2.99994121E+00
   1.95000000E+00   5.00000000E-02   5.00000000E-01  -2.99998419E+00
   2.05000000E+00   5.00000000E-02   5.00000000E-01  -2.99999586E+00
   2.15000000E+00   5.00000000E-02   5.00000000E-01  -2.99999890E+00
   2.25000000E+00   5.00000000E-02   5.00000000E-01  -2.99999967E+00
   2.35000000E+00   5.00000000E-02   5.00000000E-01  -2.99999986E+00
   2.45000000E+00   5.00000000E-02   5.00000000E-01  -2.99999990E+00
   2.55000000E+00   5.00000000E-02   5.00000000E-01  -2.99999991E+00
   2.65000000E+00   5.00000000E-02   5.00000000E-01  -2.99999991E+00
   2.75000000E+00   5.00000000E-02   5.00000000E-01  -2.99999991E+00
   2.85000000E+00   5.00000000E-02   5.00000000E-01  -2.99999991E+00
   2.95000000E+00   5.00000000E-02   5.00000000E-01  -2.99999991E+00
   3.05000000E+00   5.00000000E-02   5.00000000E-01  -2.99999991E+00
   3.15000000E+00   5.00000000E-02   5.00000000E-01  -2.99999992E+00
   3.25000000E+00   5.00000000E-02   5.00000000E-01  -2.99999992E+00
   3.35000000E+00   5.00000000E-02   5.00000000E-01  -2.99999992E+00
   3.45000000E+00   5.00000000E-02   5.00000000E-01  -2.99999992E+00
   3.55000000E+00   5.00000000E-02   5.00000000E-01  -2.99999992E+00
   3.65000000E+00   5.00000000E-02   5.00000000E-01  -2.99999992E+00
   3.75000000E+00   5.00000000E-02   5.00000000E-01  -2.99999992E+00
   3.85000000E+00   5.00000000E-02   5.00000000E-01  -2.99999992E+00
   3.95000000E+00   5.00000000E-02   5.00000000E-01  -2.99999992E+00
   4.05000000E+00   5.00000000E-02   5.00000000E-01  -2.99999992E+00
   4.15000000E+00   5.00000000E-02   5.00000000E-01  -2.99999992E+00
   4.25000000E+00   5.00000000E-02   5.00000000E-01  -2.99999992E+00
   4.35000000E+00   5.00000000E-02   5.00000000E-01  -2.99999992E+00
   4.45000000E+00   5.00000000E-02   5.00000000E-01  -2.99999992E+00
   4.55000000E+00   5.00000000E-02   5.00000000E-01  -2.99999992E+00
   4.65000000E+00   5.00000000E-02   5.00000000E-01  -2.99999992E+00
   4.75000000E+00   5.00000000E-02   5.00000000E-01  -2.99999992E+00
   4.85000000E+00   5.00000000E-02   5.00000000E-01  -2.99999992E+00
   4.95000000E+00   5.00000000E-02   5.00000000E-01  -2.99999992E+00
   5.05000000E+00   5.00000000E-02   5.00000000E-01  -2.99999993E+00
   5.15000000E+00   5.00000000E-02   5.00000000E-01  -2.99999993E+00
   5.25000000E+00   5.00000000E-02   5.00000000E-01  -2.99999993E+00
   5.35000000E+00   5.00000000E-02   5.00000000E-01  -2.99999993E+00
   5.45000000E+00   5.00000000E-02   5.00000000E-01  -2.99999993E+00
   5.55000000E+00   5.00000000E-02   5.00000000E-01  -2.99999993E+00
   5.65000000E+00   5.00000000E-02   5.00000000E-01  -2.99999993E+00
   5.75000000E+00   5.00000000E-02   5.00000000E-01  -2.99999993E+00
   5.85000000E+00   5.00000000E-02   5.00000000E-01  -2.99999993E+00
   5.95000000E+00   5.00000000E-02   5.00000000E-01  -2.99999993E+00
   6.05000000E+00   5.00000000E-02   5.00000000E-01  -2.99999993E+00
   6.15000000E+00   5.00000000E-02   5.00000000E-01  -2.99999993E+00
   6.25000000E+00   5.00000000E-02   5.00000000E-01  -2.99999993E+00
   6.35000000E+00   5.00000000E-02   5.00000000E-01  -2.99999993E+00
   6.45000000E+00   5.00000000E-02   5.00000000E-01  -2.99999993E+00
   6.55000000E+00   5.00000000E-02   5.00000000E-01  -2.99999993E+00
   6.65000000E+00   5.00000000E-02   5.00000000E-01  -2.99999993E+00
   6.75000000E+00   5.00000000E-02   5.00000000E-01  -2.99999993E+00
   6.85000000E+00   5.00000000E-02   5.00000000E-01  -2.99999994E+00
   6.95000000E+00   5.00000000E-02   5.00000000E-01  -2.99999994E+00
   7.05000000E+00   5.00000000E-02   5.00000000E-01  -2.99999994E+00
   7.15000000E+00   5.00000000E-02   5.00000000E-01  -2.99999994E+00
   7.25000000E+00   5.00000000E-02   5.00000000E-01  -2.99999994E+00
   7.35000000E+00   5.00000000E-02   5.00000000E-01  -2.99999994E+00
   7.45000000E+00   5.00000000E-02   5.00000000E-01  -2.99999994E+00
   7.55000000E+00   5.00000000E-02   5.00000000E-01  -2.99999994E+00
   7.65000000E+00   5.00000000E-02   5.00000000E-01  -2.99999994E+00
   7.75000000E+00   5.00000000E-02   5.00000000E-01  -2.99999994E+00
   7.85000000E+00   5.00000000E-02   5.00000000E-01  -2.99999994E+00
   7.95000000E+00   5.00000000E-02   5.00000000E-01  -2.99999994E+00
   8.05000000E+00   5.00000000E-02   5.00000000E-01  -2.99999994E+00
   8.15000000E+00   5.00000000E-02   5.00000000E-01  -2.99999994E+00
   8.25000000E+00   5.00000000E-02   5.00000000E-01  -2.99999995E+00
   8.35000000E+00   5.00000000E-02   5.00000000E-01  -2.99999995E+00
   8.45000000E+00   5.00000000E-02   5.00000000E-01  -2.99999995E+00
   8.55000000E+00   5.00000000E-02   5.00000000E-01  -2.99999995E+00
   8.65000000E+00   5.00000000E-02   5.00000000E-01  -2.99999995E+00
   8.75000000E+00   5.00000000E-02   5.00000000E-01  -2.99999995E+00
   8.85000000E+00   5.00000000E-02   5.00000000E-01  -2.99999995E+00
   8.95000000E+00   5.00000000E-02   5.00000000E-01  -2.99999995E+00
   9.05000000E+00   5.00000000E-02   5.00000000E-01  -2.99999995E+00
   9.15000000E+00   5.00000000E-02   5.00000000E-01  -2.99999995E+00
   9.25000000E+00   5.00000000E-02   5.00000000E-01  -2.99999995E+00
   9.35000000E+00   5.00000000E-02   5.00000000E-01  -2.99999995E+00
   9.45000000E+00   5.00000000E-02   5.00000000E-01  -2.99999995E+00
   9.55000000E+00   5.00000000E-02   5.00000000E-01  -2.99999995E+00
   9.65000000E+00   5.00000000E-02   5.00000000E-01  -2.99999995E+00
   9.75000000E+00   5.00000000E-02   5.00000000E-01  -2.99999995E+00
   9.85000000E+00   5.00000000E-02   5.00000000E-01  -2.99999996E+00
   9.95000000E+00   5.00000000E-02   5.00000000E-01  -2.99999996E+00
   5.00000000E-02   1.50000000E-01   5.00000000E-01  -1.02042184E+00
   1.50000000E-01   1.50000000E-01   5.00000000E-01  -1.05758008E+00
   2.50000000E-01   1.50000000E-01   5.00000000E-01  -1.12328518E+00
   3.50000000E-01   1.50000000E-01   5.00000000E-01  -1.22290130E+00
   4.50000000E-01   1.50000000E-01   5.00000000E-01  -1.35889635E+00
   5.50000000E-01   1.50000000E-01   5.00000000E-01  -1.53146612E+00
   6.50000000E-01   1.50000000E-01   5.00000000E-01  -1.73928684E+00
   7.50000000E-01   1.50000000E-01   5.00000000E-01  -1.97957950E+00
   8.50000000E-01   1.50000000E-01   5.00000000E-01  -2.23926073E+00
   9.50000000E-01   1.50000000E-01   5.00000000E-01  -2.49432077E+00
   1.05000000E+00   1.50000000E-01   5.00000000E-01  -2.71090848E+00
   1.15000000E+00   1.50000000E-01   5.00000000E-01  -2.86046356E+00
   1.25000000E+00   1.50000000E-01   5.00000000E-01  -2.94214783E+00
   1.35000000E+00   1.50000000E-01   5.00000000E-01  -2.97859247E+00
   1.45000000E+00   1.50000000E-01   5.00000000E-01  -2.99269414E+00
   1.55000000E+00   1.50000000E-01   5.00000000E-01  -2.99765573E+00
   1.65000000E+00   1.50000000E-01   5.00000000E-01  -2.99928562E+00
   1.75000000E+00   1.50000000E-01   5.00000000E-01  -2.99979210E+00
   1.85000000E+00   1.50000000E-01   5.00000000E-01  -2.99994198E+00
   1.95000000E+00   1.50000000E-01   5.00000000E-01  -2.99998440E+00
   2.05000000E+00   1.50000000E-01   5.00000000E-01  -2.99999591E+00
   2.15000000E+00   1.50000000E-01   5.00000000E-01  -2.99999892E+00
   2.25000000E+00   1.50000000E-01   5.00000000E-01  -2.99999967E+00
   2.35000000E+00   1.50000000E-01   5.00000000E-01  -2.99999986E+00
   2.45000000E+00   1.50000000E-01   5.00000000E-01  -2.99999990E+00
   2.55000000E+00   1.50000000E-01   5.00000000E-01  -2.99999991E+00
   2.65000000E+00   1.50000000E-01   5.00000000E-01  -2.99999991E+00
   2.75000000E+00   1.50000000E-01   5.00000000E-01  -2.99999991E+00
   2.85000000E+00   1.50000000E-01   5.00000000E-01  -2.99999991E+00
   2.95000000E+00   1.50000000E-01   5.00000000E-01  -2.99999991E+00
   3.05000000E+00   1.50000000E-01   5.00000000E-01  -2.99999991E+00
   3.15000000E+00   1.50000000E-01   5.00000000E-01  -2.99999992E+00
   3.25000000E+00   1.50000000E-01   5.00000000E-01  -2.99999992E+00
   3.35000000E+00   1.50000000E-01   5.00000000E-01  -2.99999992E+00
   3.45000000E+00   1.50000000E-01   5.00000000E-01  -2.99999992E+00
   3.55000000E+00   1.50000000E-01   5.00000000E-01  -2.99999992E+00
   3.65000000E+00   1.50000000E-01   5.00000000E-01  -2.99999992E+00
   3.75000000E+00   1.50000000E-01   5.00000000E-01  -2.99999992E+00
   3.85000000E+00   1.50000000E-01   5.00000000E-01  -2.99999992E+00
   3.95000000E+00   1.50000000E-01   5.00000000E-01  -2.99999992E+00
   4.05000000E+00   1.50000000E-01   5.00000000E-01  -2.99999992E+00
   4.15000000E+00   1.50000000E-01   5.00000000E-01  -2.99999992E+00
   4.25000000E+00   1.50000000E-01   5.00000000E-01  -2.99999992E+00
   4.35000000E+00   1.50000000E-01   5.00000000E-01  -2.99999992E+00
   4.45000000E+00   1.50000000E-01   5.00000000E-01  -2.99999992E+00
   4.55000000E+00   1.50000000E-01   5.00000000E-01  -2.99999992E+00
   4.65000000E+00   1.50000000E-01   5.00000000E-01  -2.99999992E+00
   4.75000000E+00   1.50000000E-01   5.00000000E-01  -2.99999992E+00
   4.85000000E+00   1.50000000E-01   5.00000000E-01  -2.99999992E+00
   4.95000000E+00   1.50000000E-01   5.00000000E-01  -2.99999992E+00
   5.05000000E+00   1.50000000E-01   5.00000000E-01  -2.99999993E+00
   5.15000000E+00   1.50000000E-01   5.00000000E-01  -2.99999993E+00
   5.25000000E+00   1.50000000E-01   5.00000000E-01  -2.99999993E+00
   5.35000000E+00   1.50000000E-01   5.00000000E-01  -2.99999993E+00
   5.45000000E+00   1.50000000E-01   5.00000000E-01  -2.99999993E+00
   5.55000000E+00   1.50000000E-01   5.00000000E-01  -2.99999993E+00
   5.65000000E+00   1.50000000E-01   5.00000000E-01  -2.99999993E+00
   5.75000000E+00   1.50000000E-01   5.00000000E-01  -2.99999993E+00
   5.85000000E+00   1.50000000E-01   5.00000000E-01  -2.99999993E+00
   5.95000000E+00   1.50000000E-01   5.00000000E-01  -2.99999993E+00
   6.05000000E+00   1.50000000E-01   5.00000000E-01  -2.99999993E+00
   6.15000000E+00   1.50000000E-01   5.00000000E-01  -2.99999993E+00
   6.25000000E+00   1.50000000E-01   5.00000000E-01  -2.99999993E+00
   6.35000000E+00   1.50000000E-01   5.00000000E-01  -2.99999993E+00
   6.45000000E+00   1.50000000E-01   5.00000000E-01  -2.99999993E+00
   6.55000000E+00   1.50000000E-01   5.00000000E-01  -2.99999993E+00
   6.65000000E+00   1.50000000E-01   5.00000000E-01  -2.99999993E+00
   6.75000000E+00   1.50000000E-01   5.00000000E-01  -2.99999993E+00
   6.85000000E+00   1.50000000E-01   5.00000000E-01  -2.99999994E+00
   6.95000000E+00   1.50000000E-01   5.00000000E-01  -2.99999994E+00
   7.05000000E+00   1.50000000E-01   5.00000000E-01  -2.99999994E+00
   7.15000000E+00   1.50000000E-01   5.00000000E-01  -2.99999994E+00
   7.25000000E+00   1.50000000E-01   5.00000000E-01  -2.99999994E+00
   7.35000000E+00   1.50000000E-01   5.00000000E-01  -2.99999994E+00
   7.45000000E+00   1.50000000E-01   5.00000000E-01  -2.99999994E+00
   7.55000000E+00   1.50000000E-01   5.00000000E-01  -2.99999994E+00
   7.65000000E+00   1.50000000E-01   5.00000000E-01  -2.99999994E+00
   7.75000000E+00   1.50000000E-01   5.00000000E-01  -2.99999994E+00
   7.85000000E+00   1.50000000E-01   5.00000000E-01  -2.99999994E+00
   7.95000000E+00   1.50000000E-01   5.00000000E-01  -2.99999994E+00
   8.05000000E+00   1.50000000E-01   5.00000000E-01  -2.99999994E+00
   8.15000000E+00   1.50000000E-01   5.00000000E-01  -2.99999994E+00
   8.25000000E+00   1.50000000E-01   5.00000000E-01  -2.99999995E+00
   8.35000000E+00   1.50000000E-01   5.00000000E-01  -2.99999995E+00
   8.45000000E+00   1.50000000E-01   5.00000000E-01  -2.99999995E+00
   8.55000000E+00   1.50000000E-01   5.00000000E-01  -2.99999995E+00
   8.65000000E+00   1.50000000E-01   5.00000000E-01  -2.99999995E+00
   8.75000000E+00   1.50000000E-01   5.00000000E-01  -2.99999995E+00
   8.85000000E+00   1.50000000E-01   5.00000000E-01  -2.99999995E+00
   8.95000000E+00   1.50000000E-01   5.00000000E-01  -2.99999995E+00
   9.05000000E+00   1.50000000E-01   5.00000000E-01  -2.99999995E+00
   9.15000000E+00   1.50000000E-01   5.00000000E-01  -2.99999995E+00
   9.25000000E+00   1.50000000E-01   5.00000000E-01  -2.99999995E+00
   9.35000000E+00   1.50000000E-01   5.00000000E-01  -2.99999995E+00
   9.45000000E+00   1.50000000E-01   5.00000000E-01  -2.99999995E+00
   9.55000000E+00   1.50000000E-01   5.00000000E-01  -2.99999995E+00
   9.65000000E+00   1.50000000E-01   5.00000000E-01  -2.99999995E+00
   9.75000000E+00   1.50000000E-01   5.00000000E-01  -2.99999995E+00
   9.85000000E+00   1.50000000E-01   5.00000000E-01  -2.99999996E+00
   9.95000000E+00   1.50000000E-01   5.00000000E-01  -2.99999996E+00
   5.00000000E-02   2.50000000E-01   5.00000000E-01  -1.02429399E+00
   1.50000000E-01   2.50000000E-01   5.00000000E-01  -1.06539255E+00
   2.50000000E-01   2.50000000E-01   5.00000000E-01  -1.13487889E+00
   3.50000000E-01   2.50000000E-01   5.00000000E-01  -1.23751273E+00
   4.50000000E-01   2.50000000E-01   5.00000000E-01  -1.37523486E+00
   5.50000000E-01   2.50000000E-01   5.00000000E-01  -1.54752493E+00
   6.50000000E-01   2.50000000E-01   5.00000000E-01  -1.75239333E+00
   7.50000000E-01   2.50000000E-01   5.00000000E-01  -1.99461490E+00
   8.50000000E-01   2.50000000E-01   5.00000000E-01  -2.25607059E+00
   9.50000000E-01   2.50000000E-01   5.00000000E-01  -2.51025330E+00
   1.05000000E+00   2.50000000E-01   5.00000000E-01  -2.72303280E+00
   1.15000000E+00   2.50000000E-01   5.00000000E-01  -2.86760990E+00
   1.25000000E+00   2.50000000E-01   5.00000000E-01  -2.94547528E+00
   1.35000000E+00   2.50000000E-01   5.00000000E-01  -2.97989860E+00
   1.45000000E+00   2.50000000E-01   5.00000000E-01  -2.99315315E+00
   1.55000000E+00   2.50000000E-01   5.00000000E-01  -2.99780535E+00
   1.65000000E+00   2.50000000E-01   5.00000000E-01  -2.99933166E+00
   1.75000000E+00   2.50000000E-01   5.00000000E-01  -2.99980558E+00
   1.85000000E+00   2.50000000E-01   5.00000000E-01  -2.99994575E+00
   1.95000000E+00   2.50000000E-01   5.00000000E-01  -2.99998541E+00
   2.05000000E+00   2.50000000E-01   5.00000000E-01  -2.99999617E+00
   2.15000000E+00   2.50000000E-01   5.00000000E-01  -2.99999898E+00
   2.25000000E+00   2.50000000E-01   5.00000000E-01  -2.99999969E+00
   2.35000000E+00   2.50000000E-01   5.00000000E-01  -2.99999986E+00
   2.45000000E+00   2.50000000E-01   5.00000000E-01  -2.99999990E+00
   2.55000000E+00   2.50000000E-01   5.00000000E-01  -2.99999991E+00
   2.65000000E+00   2.50000000E-01   5.00000000E-01  -2.99999991E+00
   2.75000000E+00   2.50000000E-01   5.00000000E-01  -2.99999991E+00
   2.85000000E+00   2.50000000E-01   5.00000000E-01  -2.99999991E+00
   2.95000000E+00   2.50000000E-01   5.00000000E-01  -2.99999991E+00
   3.05000000E+00   2.50000000E-01   5.00000000E-01  -2.99999991E+00
   3.15000000E+00   2.50000000E-01   5.00000000E-01  -2.99999992E+00
   3.25000000E+00   2.50000000E-01   5.00000000E-01  -2.99999992E+00
   3.35000000E+00   2.50000000E-01   5.00000000E-01  -2.99999992E+00
   3.45000000E+00   2.50000000E-01   5.00000000E-01  -2.99999992E+00
   3.55000000E+00   2.50000000E-01   5.00000000E-01  -2.99999992E+00
   3.65000000E+00   2.50000000E-01   5.00000000E-01  -2.99999992E+00
   3.75000000E+00   2.50000000E-01   5.00000000E-01  -2.99999992E+00
   3.85000000E+00   2.50000000E-01   5.00000000E-01  -2.99999992E+00
   3.95000000E+00   2.50000000E-01   5.00000000E-01  -2.99999992E+00
   4.05000000E+00   2.50000000E-01   5.00000000E-01  -2.99999992E+00
   4.15000000E+00   2.50000000E-01   5.00000000E-01  -2.99999992E+00
   4.25000000E+00   2.50000000E-01   5.00000000E-01  -2.99999992E+00
   4.35000000E+00   2.50000000E-01   5.00000000E-01  -2.99999992E+00
   4.45000000E+00   2.50000000E-01   5.00000000E-01  -2.99999992E+00
   4.55000000E+00   2.50000000E-01   5.00000000E-01  -2.99999992E+00
   4.65000000E+00   2.50000000E-01   5.00000000E-01  -2.99999992E+00
   4.75000000E+00   2.50000000E-01   5.00000000E-01  -2.99999992E+00
   4.85000000E+00   2.50000000E-01   5.00000000E-01  -2.99999992E+00
   4.95000000E+00   2.50000000E-01   5.00000000E-01  -2.99999992E+00
   5.05000000E+00   2.50000000E-01   5.00000000E-01  -2.99999993E+00
   5.15000000E+00   2.50000000E-01   5.00000000E-01  -2.99999993E+00
   5.25000000E+00   2.50000000E-01   5.00000000E-01  -2.99999993E+00
   5.35000000E+00   2.50000000E-01   5.00000000E-01  -2.99999993E+00
   5.45000000E+00   2.50000000E-01   5.00000000E-01  -2.99999993E+00
   5.55000000E+00   2.50000000E-01   5.00000000E-01  -2.99999993E+00
   5.65000000E+00   2.50000000E-01   5.00000000E-01  -2.99999993E+00
   5.75000000E+00   2.50000000E-01   5.00000000E-01  -2.99999993E+00
   5.85000000E+00   2.50000000E-01   5.00000000E-01  -2.99999993E+00
   5.95000000E+00   2.50000000E-01   5.00000000E-01  -2.99999993E+00
   6.05000000E+00   2.50000000E-01   5.00000000E-01  -2.99999993E+00
   6.15000000E+00   2.50000000E-01   5.00000000E-01  -2.99999993E+00
   6.25000000E+00   2.50000000E-01   5.00000000E-01  -2.99999993E+00
   6.35000000E+00   2.50000000E-01   5.00000000E-01  -2.99999993E+00
   6.45000000E+00   2.50000000E-01   5.00000000E-01  -2.99999993E+00
   6.55000000E+00   2.50000000E-01   5.00000000E-01  -2.99999993E+00
   6.65000000E+00   2.50000000E-01   5.00000000E-01  -2.99999993E+00
   6.75000000E+00   2.50000000E-01   5.00000000E-01  -2.99999993E+00
   6.85000000E+00   2.50000000E-01   5.00000000E-01  -2.99999994E+00
   6.95000000E+00   2.50000000E-01   5.00000000E-01  -2.99999994E+00
   7.05000000E+00   2.50000000E-01   5.00000000E-01  -2.99999994E+00
   7.15000000E+00   2.50000000E-01   5.00000000E-01  -2.99999994E+00
   7.25000000E+00   2.50000000E-01   5.00000000E-01  -2.99999994E+00
   7.35000000E+00   2.50000000E-01   5.00000000E-01  -2.99999994E+00
   7.45000000E+00   2.50000000E-01   5.00000000E-01  -2.99999994E+00
   7.55000000E+00   2.50000000E-01   5.00000000E-01  -2.99999994E+00
   7.65000000E+00   2.50000000E-01   5.00000000E-01  -2.99999994E+00
   7.75000000E+00   2.50000000E-01   5.00000000E-01  -2.99999994E+00
   7.85000000E+00   2.50000000E-01   5.00000000E-01  -2.99999994E+00
   7.95000000E+00   2.50000000E-01   5.00000000E-01  -2.99999994E+00
   8.05000000E+00   2.50000000E-01   5.00000000E-01  -2.99999994E+00
   8.15000000E+00   2.50000000E-01   5.00000000E-01  -2.99999994E+00
   8.25000000E+00   2.50000000E-01   5.00000000E-01  -2.99999995E+00
   8.35000000E+00   2.50000000E-01   5.00000000E-01  -2.99999995E+00
   8.45000000E+00   2.50000000E-01   5.00000000E-01  -2.99999995E+00
   8.55000000E+00   2.50000000E-01   5.00000000E-01  -2.99999995E+00
   8.65000000E+00   2.50000000E-01   5.00000000E-01  -2.99999995E+00
   8.75000000E+00   2.50000000E-01   5.00000000E-01  -2.99999995E+00
   8.85000000E+00   2.50000000E-01   5.00000000E-01  -2.99999995E+00
   8.95000000E+00   2.50000000E-01   5.00000000E-01  -2.99999995E+00
   9.05000000E+00   2.50000000E-01   5.00000000E-01  -2.99999995E+00
   9.15000000E+00   2.50000000E-01   5.00000000E-01  -2.99999995E+00
   9.25000000E+00   2.50000000E-01   5.00000000E-01  -2.99999995E+00
   9.35000000E+00   2.50000000E-01   5.00000000E-01  -2.99999995E+00
   9.45000000E+00   2.50000000E-01   5.00000000E-01  -2.99999995E+00
   9.55000000E+00   2.50000000E-01   5.00000000E-01  -2.99999995E+00
   9.65000000E+00   2.50000000E-01   5.00000000E-01  -2.99999995E+00
   9.75000000E+00   2.50000000E-01   5.00000000E-01  -2.99999995E+00
   9.85000000E+00   2.50000000E-01   5.00000000E-01  -2.99999996E+00
   9.95000000E+00   2.50000000E-01   5.00000000E-01  -2.99999996E+00
   5.00000000E-02   3.50000000E-01   5.00000000E-01  -1.06285684E+00
   1.50000000E-01   3.50000000E-01   5.00000000E-01  -1.13076634E+00
   2.50000000E-01   3.50000000E-01   5.00000000E-01  -1.22225146E+00
   3.50000000E-01   3.50000000E-01   5.00000000E-01  -1.34184463E+00
   4.50000000E-01   3.50000000E-01   5.00000000E-01  -1.49098371E+00
   5.50000000E-01   3.50000000E-01   5.00000000E-01  -1.66642033E+00
   6.50000000E-01   3.50000000E-01   5.00000000E-01  -1.85029210E+00
   7.50000000E-01   3.50000000E-01   5.00000000E-01  -2.09208202E+00
   8.50000000E-01   3.50000000E-01   5.00000000E-01  -2.34688550E+00
   9.50000000E-01   3.50000000E-01   5.00000000E-01  -2.58469049E+00
   1.05000000E+00   3.50000000E-01   5.00000000E-01  -2.77360820E+00
   1.15000000E+00   3.50000000E-01   5.00000000E-01  -2.89494712E+00
   1.25000000E+00   3.50000000E-01   5.00000000E-01  -2.95746065E+00
   1.35000000E+00   3.50000000E-01   5.00000000E-01  -2.98442097E+00
   1.45000000E+00   3.50000000E-01   5.00000000E-01  -2.99469991E+00
   1.55000000E+00   3.50000000E-01   5.00000000E-01  -2.99829936E+00
   1.65000000E+00   3.50000000E-01   5.00000000E-01  -2.99948113E+00
   1.75000000E+00   3.50000000E-01   5.00000000E-01  -2.99984873E+00
   1.85000000E+00   3.50000000E-01   5.00000000E-01  -2.99995769E+00
   1.95000000E+00   3.50000000E-01   5.00000000E-01  -2.99998858E+00
   2.05000000E+00   3.50000000E-01   5.00000000E-01  -2.99999698E+00
   2.15000000E+00   3.50000000E-01   5.00000000E-01  -2.99999918E+00
   2.25000000E+00   3.50000000E-01   5.00000000E-01  -2.99999973E+00
   2.35000000E+00   3.50000000E-01   5.00000000E-01  -2.99999987E+00
   2.45000000E+00   3.50000000E-01   5.00000000E-01  -2.99999990E+00
   2.55000000E+00   3.50000000E-01   5.00000000E-01  -2.99999991E+00
   2.65000000E+00   3.50000000E-01   5.00000000E-01  -2.99999991E+00
   2.75000000E+00   3.50000000E-01   5.00000000E-01  -2.99999991E+00
   2.85000000E+00   3.50000000E-01   5.00000000E-01  -2.99999991E+00
   2.95000000E+00   3.50000000E-01   5.00000000E-01  -2.99999991E+00
   3.05000000E+00   3.50000000E-01   5.00000000E-01  -2.99999991E+00
   3.15000000E+00   3.50000000E-01   5.00000000E-01  -2.99999992E+00
   3.25000000E+00   3.50000000E-01   5.00000000E-01  -2.99999992E+00
   3.35000000E+00   3.50000000E-01   5.00000000E-01  -2.99999992E+00
   3.45000000E+00   3.50000000E-01   5.00000000E-01  -2.99999992E+00
   3.55000000E+00   3.50000000E-01   5.00000000E-01  -2.99999992E+00
   3.65000000E+00   3.50000000E-01   5.00000000E-01  -2.99999992E+00
   3.75000000E+00   3.50000000E-01   5.00000000E-01  -2.99999992E+00
   3.85000000E+00   3.50000000E-01   5.00000000E-01  -2.99999992E+00
   3.95000000E+00   3.50000000E-01   5.00000000E-01  -2.99999992E+00
   4.05000000E+00   3.50000000E-01   5.00000000E-01  -2.99999992E+00
   4.15000000E+00   3.50000000E-01   5.00000000E-01  -2.99999992E+00
   4.25000000E+00   3.50000000E-01   5.00000000E-01  -2.99999992E+00
   4.35000000E+00   3.50000000E-01   5.00000000E-01  -2.99999992E+00
   4.45000000E+00   3.50000000E-01   5.00000000E-01  -2.99999992E+00
   4.55000000E+00   3.50000000E-01   5.00000000E-01  -2.99999992E+00
   4.65000000E+00   3.50000000E-01   5.00000000E-01  -2.99999992E+00
   4.75000000E+00   3.50000000E-01   5.00000000E-01  -2.99999992E+00
   4.85000000E+00   3.50000000E-01   5.00000000E-01  -2.99999992E+00
   4.95000000E+00   3.50000000E-01   5.00000000E-01  -2.99999992E+00
   5.05000000E+00   3.50000000E-01   5.00000000E-01  -2.99999993E+00
   5.15000000E+00   3.50000000E-01   5.00000000E-01  -2.99999993E+00
   5.25000000E+00   3.50000000E-01   5.00000000E-01  -2.99999993E+00
   5.35000000E+00   3.50000000E-01   5.00000000E-01  -2.99999993E+00
   5.45000000E+00   3.50000000E-01   5.00000000E-01  -2.99999993E+00
   5.55000000E+00   3.50000000E-01   5.00000000E-01  -2.99999993E+00
   5.65000000E+00   3.50000000E-01   5.00000000E-01  -2.99999993E+00
   5.75000000E+00   3.50000000E-01   5.00000000E-01  -2.99999993E+00
   5.85000000E+00   3.50000000E-01   5.00000000E-01  -2.99999993E+00
   5.95000000E+00   3.50000000E-01   5.00000000E-01  -2.99999993E+00
   6.05000000E+00   3.50000000E-01   5.00000000E-01  -2.99999993E+00
   6.15000000E+00   3.50000000E-01   5.00000000E-01  -2.99999993E+00
   6.25000000E+00   3.50000000E-01   5.00000000E-01  -2.99999993E+00
   6.35000000E+00   3.50000000E-01   5.00000000E-01  -2.99999993E+00
   6.45000000E+00   3.50000000E-01   5.00000000E-01  -2.99999993E+00
   6.55000000E+00   3.50000000E-01   5.00000000E-01  -2.99999993E+00
   6.65000000E+00   3.50000000E-01   5.00000000E-01  -2.99999993E+00
   6.75000000E+00   3.50000000E-01   5.00000000E-01  -2.99999993E+00
   6.85000000E+00   3.50000000E-01   5.00000000E-01  -2.99999994E+00
   6.95000000E+00   3.50000000E-01   5.00000000E-01  -2.99999994E+00
   7.05000000E+00   3.50000000E-01   5.00000000E-01  -2.99999994E+00
   7.15000000E+00   3.50000000E-01   5.00000000E-01  -2.99999994E+00
   7.25000000E+00   3.50000000E-01   5.00000000E-01  -2.99999994E+00
   7.35000000E+00   3.50000000E-01   5.00000000E-01  -2.99999994E+00
   7.45000000E+00   3.50000000E-01   5.00000000E-01  -2.99999994E+00
   7.55000000E+00   3.50000000E-01   5.00000000E-01  -2.99999994E+00
   7.65000000E+00   3.50000000E-01   5.00000000E-01  -2.99999994E+00
   7.75000000E+00   3.50000000E-01   5.00000000E-01  -2.99999994E+00
   7.85000000E+00   3.50000000E-01   5.00000000E-01  -2.99999994E+00
   7.95000000E+00   3.50000000E-01   5.00000000E-01  -2.99999994E+00
   8.05000000E+00   3.50000000E-01   5.00000000E-01  -2.99999994E+00
   8.15000000E+00   3.50000000E-01   5.00000000E-01  -2.99999994E+00
   8.25000000E+00   3.50000000E-01   5.00000000E-01  -2.99999995E+00
   8.35000000E+00   3.50000000E-01   5.00000000E-01  -2.99999995E+00
   8.45000000E+00   3.50000000E-01   5.00000000E-01  -2.99999995E+00
   8.55000000E+00   3.50000000E-01   5.00000000E-01  -2.99999995E+00
   8.65000000E+00   3.50000000E-01   5.00000000E-01  -2.99999995E+00
   8.75000000E+00   3.50000000E-01   5.00000000E-01  -2.99999995E+00
   8.85000000E+00   3.50000000E-01   5.00000000E-01  -2.99999995E+00
   8.95000000E+00   3.50000000E-01   5.00000000E-01  -2.99999995E+00
   9.05000000E+00   3.50000000E-01   5.00000000E-01  -2.99999995E+00
   9.15000000E+00   3.50000000E-01   5.00000000E-01  -2.99999995E+00
   9.25000000E+00   3.50000000E-01   5.00000000E-01  -2.99999995E+00
   9.35000000E+00   3.50000000E-01   5.00000000E-01  -2.99999995E+00
   9.45000000E+00   3.50000000E-01   5.00000000E-01  -2.99999995E+00
   9.55000000E+00   3.50000000E-01   5.00000000E-01  -2.99999995E+00
   9.65000000E+00   3.50000000E-01   5.00000000E-01  -2.99999995E+00
   9.75000000E+00   3.50000000E-01   5.00000000E-01  -2.99999995E+00
   9.85000000E+00   3.50000000E-01   5.00000000E-01  -2.99999996E+00
   9.95000000E+00   3.50000000E-01   5.00000000E-01  -2.99999996E+00
   5.00000000E-02   4.50000000E-01   5.00000000E-01  -1.48553264E+00
   1.50000000E-01   4.50000000E-01   5.00000000E-01  -1.59978746E+00
   2.50000000E-01   4.50000000E-01   5.00000000E-01  -1.76147590E+00
   3.50000000E-01   4.50000000E-01   5.00000000E-01  -1.94902549E+00
   4.50000000E-01   4.50000000E-01   5.00000000E-01  -2.14963728E+00
   5.50000000E-01   4.50000000E-01   5.00000000E-01  -2.32565678E+00
   6.50000000E-01   4.50000000E-01   5.00000000E-01  -2.15149872E+00
   7.50000000E-01   4.50000000E-01   5.00000000E-01  -2.35862635E+00
   8.50000000E-01   4.50000000E-01   5.00000000E-01  -2.56331231E+00
   9.50000000E-01   4.50000000E-01   5.00000000E-01  -2.73937549E+00
   1.05000000E+00   4.50000000E-01   5.00000000E-01  -2.86577806E+00
   1.15000000E+00   4.50000000E-01   5.00000000E-01  -2.93978264E+00
   1.25000000E+00   4.50000000E-01   5.00000000E-01  -2.97583104E+00
   1.35000000E+00   4.50000000E-01   5.00000000E-01  -2.99109126E+00
   1.45000000E+00   4.50000000E-01   5.00000000E-01  -2.99693017E+00
   1.55000000E+00   4.50000000E-01   5.00000000E-01  -2.99900071E+00
   1.65000000E+00   4.50000000E-01   5.00000000E-01  -2.99969076E+00
   1.75000000E+00   4.50000000E-01   5.00000000E-01  -2.99990861E+00
   1.85000000E+00   4.50000000E-01   5.00000000E-01  -2.99997409E+00
   1.95000000E+00   4.50000000E-01   5.00000000E-01  -2.99999290E+00
   2.05000000E+00   4.50000000E-01   5.00000000E-01  -2.99999808E+00
   2.15000000E+00   4.50000000E-01   5.00000000E-01  -2.99999945E+00
   2.25000000E+00   4.50000000E-01   5.00000000E-01  -2.99999980E+00
   2.35000000E+00   4.50000000E-01   5.00000000E-01  -2.99999988E+00
   2.45000000E+00   4.50000000E-01   5.00000000E-01  -2.99999991E+00
   2.55000000E+00   4.50000000E-01   5.00000000E-01  -2.99999991E+00
   2.65000000E+00   4.50000000E-01   5.00000000E-01  -2.99999991E+00
   2.75000000E+00   4.50000000E-01   5.00000000E-01  -2.99999991E+00
   2.85000000E+00   4.50000000E-01   5.00000000E-01  -2.99999991E+00
   2.95000000E+00   4.50000000E-01   5.00000000E-01  -2.99999991E+00
   3.05000000E+00   4.50000000E-01   5.00000000E-01  -2.99999991E+00
   3.15000000E+00   4.50000000E-01   5.00000000E-01  -2.99999992E+00