 TITLE = "Mineral Volumes (m^3 mineral/m^3 porous medium)" 
VARIABLES = "X"          "Y"              "Z"            "Gypsum"         "Calcite"        "Mackinawite"    "Ferrihydrite"   "Fe(OH)3_HS"     "Siderite"       "S(s)"           "C6H10O5(s)"    
 ZONE I=         100 , J=          20 , K=           1  F=POINT
   5.00000000E-02   5.00000000E-02   5.00000000E-01   0.00000000E+00   9.39990408E-01   1.68267623E-03   0.00000000E+00   7.60606821E-14   0.00000000E+00   1.78160501E-04   1.93200409E-01
   1.50000000E-01   5.00000000E-02   5.00000000E-01   0.00000000E+00   9.40290298E-01   1.70100957E-03   0.00000000E+00   0.00000000E+00   0.00000000E+00   1.78160000E-04   1.93200409E-01
   2.50000000E-01   5.00000000E-02   5.00000000E-01   0.00000000E+00   9.40425709E-01   1.72698321E-03   0.00000000E+00   0.00000000E+00   0.00000000E+00   1.78160000E-04   1.93200409E-01
   3.50000000E-01   5.00000000E-02   5.00000000E-01   0.00000000E+00   9.40546158E-01   1.75047598E-03   0.00000000E+00   0.00000000E+00   0.00000000E+00   1.78160000E-04   1.93200409E-01
   4.50000000E-01   5.00000000E-02   5.00000000E-01   0.00000000E+00   9.40673238E-01   1.76679910E-03   0.00000000E+00   0.00000000E+00   0.00000000E+00   1.78160000E-04   1.93200409E-01
   5.50000000E-01   5.00000000E-02   5.00000000E-01   0.00000000E+00   9.40862415E-01   1.75655611E-03   0.00000000E+00   0.00000000E+00   0.00000000E+00   1.78160000E-04   1.93200409E-01
   6.50000000E-01   5.00000000E-02   5.00000000E-01   0.00000000E+00   9.41415280E-01   1.64461183E-03   0.00000000E+00   0.00000000E+00   0.00000000E+00   1.78160000E-04   1.93200409E-01
   7.50000000E-01   5.00000000E-02   5.00000000E-01   0.00000000E+00   9.42761647E-01   1.47346745E-03   0.00000000E+00   0.00000000E+00   0.00000000E+00   1.78160000E-04   1.93200409E-01
   8.50000000E-01   5.00000000E-02   5.00000000E-01   0.00000000E+00   9.43145939E-01   1.43188154E-03   0.00000000E+00   0.00000000E+00   0.00000000E+00   1.78160000E-04   1.93200409E-01
   9.50000000E-01   5.00000000E-02   5.00000000E-01   0.00000000E+00   9.43324838E-01   1.41624278E-03   0.00000000E+00   0.00000000E+00   0.00000000E+00   1.78160000E-04   1.93200409E-01
   1.05000000E+00   5.00000000E-02   5.00000000E-01   0.00000000E+00   9.43418957E-01   1.40939453E-03   0.00000000E+00   0.00000000E+00   0.00000000E+00   1.78160000E-04   1.93200409E-01
   1.15000000E+00   5.00000000E-02   5.00000000E-01   0.00000000E+00   9.43476078E-01   1.40622821E-03   0.00000000E+00   0.00000000E+00   0.00000000E+00   1.78160000E-04   1.93200409E-01
   1.25000000E+00   5.00000000E-02   5.00000000E-01   0.00000000E+00   9.43515022E-01   1.40476384E-03   0.00000000E+00   0.00000000E+00   0.00000000E+00   1.78160000E-04   1.93200409E-01
   1.35000000E+00   5.00000000E-02   5.00000000E-01   0.00000000E+00   9.43543811E-01   1.40414984E-03   0.00000000E+00   0.00000000E+00   0.00000000E+00   1.78160000E-04   1.93200409E-01
   1.45000000E+00   5.00000000E-02   5.00000000E-01   0.00000000E+00   9.43566258E-01   1.40398845E-03   0.00000000E+00   0.00000000E+00   0.00000000E+00   1.78160000E-04   1.93200409E-01
   1.55000000E+00   5.00000000E-02   5.00000000E-01   0.00000000E+00   9.43584370E-01   1.40408202E-03   0.00000000E+00   0.00000000E+00   0.00000000E+00   1.78160000E-04   1.93200409E-01
   1.65000000E+00   5.00000000E-02   5.00000000E-01   0.00000000E+00   9.43599313E-01   1.40432593E-03   0.00000000E+00   0.00000000E+00   0.00000000E+00   1.78160000E-04   1.93200409E-01
   1.75000000E+00   5.00000000E-02   5.00000000E-01   0.00000000E+00   9.43611820E-01   1.40466071E-03   0.00000000E+00   0.00000000E+00   0.00000000E+00   1.78160000E-04   1.93200409E-01
   1.85000000E+00   5.00000000E-02   5.00000000E-01   0.00000000E+00   9.43622389E-01   1.40505042E-03   0.00000000E+00   0.00000000E+00   0.00000000E+00   1.78160000E-04   1.93200409E-01
   1.95000000E+00   5.00000000E-02   5.00000000E-01   0.00000000E+00   9.43631376E-01   1.40547228E-03   0.00000000E+00   0.00000000E+00   0.00000000E+00   1.78160000E-04   1.93200409E-01
   2.05000000E+00   5.00000000E-02   5.00000000E-01   0.00000000E+00   9.43639051E-01   1.40591142E-03   0.00000000E+00   0.00000000E+00   0.00000000E+00   1.78160000E-04   1.93200409E-01
   2.15000000E+00   5.00000000E-02   5.00000000E-01   0.00000000E+00   9.43645623E-01   1.40635777E-03   0.00000000E+00   0.00000000E+00   0.00000000E+00   1.78160000E-04   1.93200409E-01
   2.25000000E+00   5.00000000E-02   5.00000000E-01   0.00000000E+00   9.43651259E-01   1.40680431E-03   0.00000000E+00   0.00000000E+00   0.00000000E+00   1.78160000E-04   1.93200409E-01
   2.35000000E+00   5.00000000E-02   5.00000000E-01   0.00000000E+00   9.43656094E-01   1.40724610E-03   0.00000000E+00   0.00000000E+00   0.00000000E+00   1.78160000E-04   1.93200409E-01
   2.45000000E+00   5.00000000E-02   5.00000000E-01   0.00000000E+00   9.43660236E-01   1.40767959E-03   0.00000000E+00   0.00000000E+00   0.00000000E+00   1.78160000E-04   1.93200409E-01
   2.55000000E+00   5.00000000E-02   5.00000000E-01   0.00000000E+00   9.43663775E-01   1.40810226E-03   0.00000000E+00   0.00000000E+00   0.00000000E+00   1.78160000E-04   1.93200409E-01
   2.65000000E+00   5.00000000E-02   5.00000000E-01   0.00000000E+00   9.43666784E-01   1.40851248E-03   0.00000000E+00   0.00000000E+00   0.00000000E+00   1.78160000E-04   1.93200409E-01
   2.75000000E+00   5.00000000E-02   5.00000000E-01   0.00000000E+00   9.43669324E-01   1.40890927E-03   0.00000000E+00   0.00000000E+00   0.00000000E+00   1.78160000E-04   1.93200409E-01
   2.85000000E+00   5.00000000E-02   5.00000000E-01   0.00000000E+00   9.43671447E-01   1.40929222E-03   0.00000000E+00   0.00000000E+00   0.00000000E+00   1.78160000E-04   1.93200409E-01
   2.95000000E+00   5.00000000E-02   5.00000000E-01   0.00000000E+00   9.43673196E-01   1.40966138E-03   0.00000000E+00   0.00000000E+00   0.00000000E+00   1.78160000E-04   1.93200409E-01
   3.05000000E+00   5.00000000E-02   5.00000000E-01   0.00000000E+00   9.43674608E-01   1.41001726E-03   0.00000000E+00   0.00000000E+00   0.00000000E+00   1.78160000E-04   1.93200409E-01
   3.15000000E+00   5.00000000E-02   5.00000000E-01   0.00000000E+00   9.43675713E-01   1.41036020E-03   0.00000000E+00   0.00000000E+00   0.00000000E+00   1.78160000E-04   1.93200409E-01
   3.25000000E+00   5.00000000E-02   5.00000000E-01   0.00000000E+00   9.43676542E-01   1.41069072E-03   0.00000000E+00   0.00000000E+00   0.00000000E+00   1.78160000E-04   1.93200409E-01
   3.35000000E+00   5.00000000E-02   5.00000000E-01   0.00000000E+00   9.43677119E-01   1.41100945E-03   0.00000000E+00   0.00000000E+00   0.00000000E+00   1.78160000E-04   1.93200409E-01
   3.45000000E+00   5.00000000E-02   5.00000000E-01   0.00000000E+00   9.43677466E-01   1.41131705E-03   0.00000000E+00   0.00000000E+00   0.00000000E+00   1.78160000E-04   1.93200409E-01
   3.55000000E+00   5.00000000E-02   5.00000000E-01   0.00000000E+00   9.43677603E-01   1.41161417E-03   0.00000000E+00   0.00000000E+00   0.00000000E+00   1.78160000E-04   1.93200409E-01
   3.65000000E+00   5.00000000E-02   5.00000000E-01   0.00000000E+00   9.43677551E-01   1.41190142E-03   0.00000000E+00   0.00000000E+00   0.00000000E+00   1.78160000E-04   1.93200409E-01
   3.75000000E+00   5.00000000E-02   5.00000000E-01   0.00000000E+00   9.43677325E-01   1.41217938E-03   0.00000000E+00   0.00000000E+00   0.00000000E+00   1.78160000E-04   1.93200409E-01
   3.85000000E+00   5.00000000E-02   5.00000000E-01   0.00000000E+00   9.43676943E-01   1.41244859E-03   0.00000000E+00   0.00000000E+00   0.00000000E+00   1.78160000E-04   1.93200409E-01
   3.95000000E+00   5.00000000E-02   5.00000000E-01   0.00000000E+00   9.43676422E-01   1.41270953E-03   0.00000000E+00   0.00000000E+00   0.00000000E+00   1.78160000E-04   1.93200409E-01
   4.05000000E+00   5.00000000E-02   5.00000000E-01   0.00000000E+00   9.43675779E-01   1.41296258E-03   0.00000000E+00   0.00000000E+00   0.00000000E+00   1.78160000E-04   1.93200409E-01
   4.15000000E+00   5.00000000E-02   5.00000000E-01   0.00000000E+00   9.43675030E-01   1.41320808E-03   0.00000000E+00   0.00000000E+00   0.00000000E+00   1.78160000E-04   1.93200409E-01
   4.25000000E+00   5.00000000E-02   5.00000000E-01   0.00000000E+00   9.43674192E-01   1.41344621E-03   0.00000000E+00   0.00000000E+00   0.00000000E+00   1.78160000E-04   1.93200409E-01
   4.35000000E+00   5.00000000E-02   5.00000000E-01   0.00000000E+00   9.43673283E-01   1.41367699E-03   0.00000000E+00   0.00000000E+00   0.00000000E+00   1.78160000E-04   1.93200409E-01
   4.45000000E+00   5.00000000E-02   5.00000000E-01   0.00000000E+00   9.43672322E-01   1.41390024E-03   0.00000000E+00   0.00000000E+00   0.00000000E+00   1.78160000E-04   1.93200409E-01
   4.55000000E+00   5.00000000E-02   5.00000000E-01   0.00000000E+00   9.43671324E-01   1.41411553E-03   0.00000000E+00   0.00000000E+00   0.00000000E+00   1.78160000E-04   1.93200409E-01
   4.65000000E+00   5.00000000E-02   5.00000000E-01   0.00000000E+00   9.43670307E-01   1.41432215E-03   0.00000000E+00   0.00000000E+00   0.00000000E+00   1.78160000E-04   1.93200409E-01
   4.75000000E+00   5.00000000E-02   5.00000000E-01   0.00000000E+00   9.43669281E-01   1.41451917E-03   0.00000000E+00   0.00000000E+00   0.00000000E+00   1.78160000E-04   1.93200409E-01
   4.85000000E+00   5.00000000E-02   5.00000000E-01   0.00000000E+00   9.43668257E-01   1.41470557E-03   0.00000000E+00   0.00000000E+00   0.00000000E+00   1.78160000E-04   1.93200409E-01
   4.95000000E+00   5.00000000E-02   5.00000000E-01   0.00000000E+00   9.43667237E-01   1.41488038E-03   0.00000000E+00   0.00000000E+00   0.00000000E+00   1.78160000E-04   1.93200409E-01
   5.05000000E+00   5.00000000E-02   5.00000000E-01   0.00000000E+00   9.43666219E-01   1.41504297E-03   0.00000000E+00   0.00000000E+00   0.00000000E+00   1.78160000E-04   1.93200409E-01
   5.15000000E+00   5.00000000E-02   5.00000000E-01   0.00000000E+00   9.43665193E-01   1.41519329E-03   0.00000000E+00   0.00000000E+00   0.00000000E+00   1.78160000E-04   1.93200409E-01
   5.25000000E+00   5.00000000E-02   5.00000000E-01   0.00000000E+00   9.43664147E-01   1.41533206E-03   0.00000000E+00   0.00000000E+00   0.00000000E+00   1.78160000E-04   1.93200409E-01
   5.35000000E+00   5.00000000E-02   5.00000000E-01   0.00000000E+00   9.43663064E-01   1.41546073E-03   0.00000000E+00   0.00000000E+00   0.00000000E+00   1.78160000E-04   1.93200409E-01
   5.45000000E+00   5.00000000E-02   5.00000000E-01   0.00000000E+00   9.43661927E-01   1.41558140E-03   0.00000000E+00   0.00000000E+00   0.00000000E+00   1.78160000E-04   1.93200409E-01
   5.55000000E+00   5.00000000E-02   5.00000000E-01   0.00000000E+00   9.43660721E-01   1.41569660E-03   0.00000000E+00   0.00000000E+00   0.00000000E+00   1.78160000E-04   1.93200409E-01
   5.65000000E+00   5.00000000E-02   5.00000000E-01   0.00000000E+00   9.43659438E-01   1.41580917E-03   0.00000000E+00   0.00000000E+00   0.00000000E+00   1.78160000E-04   1.93200409E-01
   5.75000000E+00   5.00000000E-02   5.00000000E-01   0.00000000E+00   9.43658073E-01   1.41592242E-03   0.00000000E+00   0.00000000E+00   0.00000000E+00   1.78160000E-04   1.93200409E-01
   5.85000000E+00   5.00000000E-02   5.00000000E-01   0.00000000E+00   9.43656639E-01   1.41604056E-03   0.00000000E+00   0.00000000E+00   0.00000000E+00   1.78160000E-04   1.93200409E-01
   5.95000000E+00   5.00000000E-02   5.00000000E-01   0.00000000E+00   9.43655156E-01   1.41616701E-03   0.00000000E+00   0.00000000E+00   0.00000000E+00   1.78160000E-04   1.93200409E-01
   6.05000000E+00   5.00000000E-02   5.00000000E-01   0.00000000E+00   9.43653660E-01   1.41630306E-03   0.00000000E+00   0.00000000E+00   0.00000000E+00   1.78160000E-04   1.93200409E-01
   6.15000000E+00   5.00000000E-02   5.00000000E-01   0.00000000E+00   9.43652207E-01   1.41645252E-03   0.00000000E+00   0.00000000E+00   0.00000000E+00   1.78160000E-04   1.93200409E-01
   6.25000000E+00   5.00000000E-02   5.00000000E-01   0.00000000E+00   9.43650896E-01   1.41662315E-03   0.00000000E+00   0.00000000E+00   0.00000000E+00   1.78160000E-04   1.93200409E-01
   6.35000000E+00   5.00000000E-02   5.00000000E-01   0.00000000E+00   9.43649852E-01   1.41681729E-03   0.00000000E+00   0.00000000E+00   0.00000000E+00   1.78160000E-04   1.93200409E-01
   6.45000000E+00   5.00000000E-02   5.00000000E-01   0.00000000E+00   9.43649185E-01   1.41702537E-03   0.00000000E+00   0.00000000E+00   0.00000000E+00   1.78160000E-04   1.93200409E-01
   6.55000000E+00   5.00000000E-02   5.00000000E-01   0.00000000E+00   9.43648911E-01   1.41722147E-03   0.00000000E+00   0.00000000E+00   0.00000000E+00   1.78160000E-04   1.93200409E-01
   6.65000000E+00   5.00000000E-02   5.00000000E-01   0.00000000E+00   9.43648871E-01   1.41736753E-03   0.00000000E+00   0.00000000E+00   0.00000000E+00   1.78160000E-04   1.93200409E-01
   6.75000000E+00   5.00000000E-02   5.00000000E-01   0.00000000E+00   9.43648764E-01   1.41744229E-03   0.00000000E+00   0.00000000E+00   0.00000000E+00   1.78160000E-04   1.93200409E-01
   6.85000000E+00   5.00000000E-02   5.00000000E-01   0.00000000E+00   9.43648419E-01   1.41748566E-03   0.00000000E+00   0.00000000E+00   0.00000000E+00   1.78160000E-04   1.93200409E-01
   6.95000000E+00   5.00000000E-02   5.00000000E-01   0.00000000E+00   9.43647776E-01   1.41754607E-03   0.00000000E+00   0.00000000E+00   0.00000000E+00   1.78160000E-04   1.93200409E-01
   7.05000000E+00   5.00000000E-02   5.00000000E-01   0.00000000E+00   9.43646830E-01   1.41766313E-03   0.00000000E+00   0.00000000E+00   0.00000000E+00   1.78160000E-04   1.93200409E-01
   7.15000000E+00   5.00000000E-02   5.00000000E-01   0.00000000E+00   9.43645584E-01   1.41787912E-03   0.00000000E+00   0.00000000E+00   0.00000000E+00   1.78160000E-04   1.93200409E-01
   7.25000000E+00   5.00000000E-02   5.00000000E-01   0.00000000E+00   9.43644023E-01   1.41826184E-03   0.00000000E+00   0.00000000E+00   0.00000000E+00   1.78160000E-04   1.93200409E-01
   7.35000000E+00   5.00000000E-02   5.00000000E-01   0.00000000E+00   9.43642078E-01   1.41893528E-03   0.00000000E+00   0.00000000E+00   0.00000000E+00   1.78160000E-04   1.93200409E-01
   7.45000000E+00   5.00000000E-02   5.00000000E-01   0.00000000E+00   9.43639541E-01   1.42013779E-03   0.00000000E+00   0.00000000E+00   0.00000000E+00   1.78160000E-04   1.93200409E-01
   7.55000000E+00   5.00000000E-02   5.00000000E-01   0.00000000E+00   9.43635812E-01   1.42234941E-03   0.00000000E+00   0.00000000E+00   0.00000000E+00   1.78160000E-04   1.93200409E-01
   7.65000000E+00   5.00000000E-02   5.00000000E-01   0.00000000E+00   9.43629132E-01   1.42664874E-03   0.00000000E+00   0.00000000E+00   0.00000000E+00   1.78160000E-04   1.93200409E-01
   7.75000000E+00   5.00000000E-02   5.00000000E-01   0.00000000E+00   9.43613988E-01   1.43623796E-03   0.00000000E+00   0.00000000E+00   0.00000000E+00   1.78160000E-04   1.93200409E-01
   7.85000000E+00   5.00000000E-02   5.00000000E-01   0.00000000E+00   9.43569189E-01   1.46741411E-03   0.00000000E+00   0.00000000E+00   0.00000000E+00   1.78160000E-04   1.93200409E-01
   7.95000000E+00   5.00000000E-02   5.00000000E-01   0.00000000E+00   9.43112925E-01   1.70856440E-03   0.00000000E+00   0.00000000E+00   0.00000000E+00   1.78160000E-04   1.93200409E-01
   8.05000000E+00   5.00000000E-02   5.00000000E-01   0.00000000E+00   9.43733558E-01   5.02446299E-03   6.92980000E-03   8.00352063E-05   0.00000000E+00   1.58684849E-03   0.00000000E+00
   8.15000000E+00   5.00000000E-02   5.00000000E-01   0.00000000E+00   9.44586514E-01   2.82234017E-03   6.92980000E-03   8.25405231E-04   1.27565015E-03   1.41417284E-03   0.00000000E+00
   8.25000000E+00   5.00000000E-02   5.00000000E-01   0.00000000E+00   9.44456291E-01   4.35784383E-04   6.92980000E-03   1.94147929E-03   3.30135342E-03   1.15561788E-03   0.00000000E+00
   8.35000000E+00   5.00000000E-02   5.00000000E-01   0.00000000E+00   9.42016335E-01   2.86041290E-06   6.92980000E-03   5.24537847E-03   1.67411214E-03   3.90221166E-04   0.00000000E+00
   8.45000000E+00   5.00000000E-02   5.00000000E-01   0.00000000E+00   9.40951935E-01   0.00000000E+00   6.92980000E-03   6.71254727E-03   5.65635498E-04   5.03299787E-05   0.00000000E+00
   8.55000000E+00   5.00000000E-02   5.00000000E-01   0.00000000E+00   9.40914573E-01   0.00000000E+00   6.92980000E-03   6.91930388E-03   2.92088669E-04   2.43176590E-06   0.00000000E+00
   8.65000000E+00   5.00000000E-02   5.00000000E-01   0.00000000E+00   9.40986603E-01   0.00000000E+00   6.92980000E-03   6.92868152E-03   2.03581171E-04   2.59296919E-07   0.00000000E+00
   8.75000000E+00   5.00000000E-02   5.00000000E-01   0.00000000E+00   9.40997900E-01   0.00000000E+00   6.92980000E-03   6.92604209E-03   1.87020691E-04   8.70784232E-07   0.00000000E+00
   8.85000000E+00   5.00000000E-02   5.00000000E-01   0.00000000E+00   9.41130669E-01   0.00000000E+00   6.92980000E-03   6.83069682E-03   2.01153692E-04   2.29589505E-05   0.00000000E+00
   8.95000000E+00   5.00000000E-02   5.00000000E-01   0.00000000E+00   9.41217986E-01   0.00000000E+00   6.92980000E-03   6.75525675E-03   2.28074994E-04   4.04357710E-05   0.00000000E+00
   9.05000000E+00   5.00000000E-02   5.00000000E-01   0.00000000E+00   9.41271272E-01   0.00000000E+00   6.92980000E-03   6.69706945E-03   2.62440077E-04   5.39157283E-05   0.00000000E+00
   9.15000000E+00   5.00000000E-02   5.00000000E-01   0.00000000E+00   9.41299811E-01   0.00000000E+00   6.92980000E-03   6.65383823E-03   2.98744511E-04   6.39308816E-05   0.00000000E+00
   9.25000000E+00   5.00000000E-02   5.00000000E-01   0.00000000E+00   9.41315406E-01   0.00000000E+00   6.92980000E-03   6.62153669E-03   3.32187319E-04   7.14140101E-05   0.00000000E+00
   9.35000000E+00   5.00000000E-02   5.00000000E-01   0.00000000E+00   9.41345596E-01   0.00000000E+00   6.92980000E-03   6.58178056E-03   3.63512670E-04   8.06241011E-05   0.00000000E+00
   9.45000000E+00   5.00000000E-02   5.00000000E-01   0.00000000E+00   9.41286935E-01   0.00000000E+00   6.92980000E-03   6.61892809E-03   3.65126251E-04   7.20183270E-05   0.00000000E+00
   9.55000000E+00   5.00000000E-02   5.00000000E-01   0.00000000E+00   9.41008587E-01   0.00000000E+00   6.92980000E-03   6.84956187E-03   2.91589708E-04   1.85886166E-05   0.00000000E+00
   9.65000000E+00   5.00000000E-02   5.00000000E-01   0.00000000E+00   9.40973892E-01   0.00000000E+00   6.92980000E-03   6.92549949E-03   2.14231549E-04   9.96524172E-07   0.00000000E+00
   9.75000000E+00   5.00000000E-02   5.00000000E-01   0.00000000E+00   9.41025355E-01   0.00000000E+00   6.92980000E-03   6.92907956E-03   1.59632793E-04   1.67131379E-07   0.00000000E+00
   9.85000000E+00   5.00000000E-02   5.00000000E-01   0.00000000E+00   9.41062642E-01   0.00000000E+00   6.92980000E-03   6.92943596E-03   1.23581054E-04   8.45552140E-08   0.00000000E+00
   9.95000000E+00   5.00000000E-02   5.00000000E-01   0.00000000E+00   9.41082492E-01   0.00000000E+00   6.92980000E-03   6.92961442E-03   1.01563452E-04   4.32006023E-08   0.00000000E+00
   5.00000000E-02   1.50000000E-01   5.00000000E-01   1.26654261-306   9.43289981E-01   2.53182502E-03   6.92980000E-03   2.49130243E-03   0.00000000E+00   1.02928796E-03   0.00000000E+00
   1.50000000E-01   1.50000000E-01   5.00000000E-01   0.00000000E+00   9.44101351E-01   3.20806164E-03   6.92980000E-03   2.16013671E-03   0.00000000E+00   1.10504832E-03   0.00000000E+00
   2.50000000E-01   1.50000000E-01   5.00000000E-01   0.00000000E+00   9.44339453E-01   3.23965889E-03   6.92980000E-03   2.04997511E-03   0.00000000E+00   1.13054595E-03   0.00000000E+00
   3.50000000E-01   1.50000000E-01   5.00000000E-01   0.00000000E+00   9.44387287E-01   3.28260817E-03   6.92980000E-03   1.97734978E-03   0.00000000E+00   1.14735287E-03   0.00000000E+00
   4.50000000E-01   1.50000000E-01   5.00000000E-01   0.00000000E+00   9.44319143E-01   3.40810750E-03   6.92980000E-03   1.85251385E-03   0.00000000E+00   1.17625366E-03   0.00000000E+00
   5.50000000E-01   1.50000000E-01   5.00000000E-01   0.00000000E+00   9.44054021E-01   3.88238102E-03   6.92980000E-03   1.43888429E-03   0.00000000E+00   1.27205841E-03   0.00000000E+00
   6.50000000E-01   1.50000000E-01   5.00000000E-01   0.00000000E+00   9.41882461E-01   5.66882072E-03   6.92980000E-03   3.05800513E-04   0.00000000E+00   1.53454696E-03   0.00000000E+00
   7.50000000E-01   1.50000000E-01   5.00000000E-01   0.00000000E+00   9.39427382E-01   1.95302831E-03   0.00000000E+00   0.00000000E+00   0.00000000E+00   1.78160000E-04   1.93200409E-01
   8.50000000E-01   1.50000000E-01   5.00000000E-01   0.00000000E+00   9.40728238E-01   1.72742836E-03   0.00000000E+00   0.00000000E+00   0.00000000E+00   1.78160000E-04   1.93200409E-01
   9.50000000E-01   1.50000000E-01   5.00000000E-01   0.00000000E+00   9.41028451E-01   1.68665275E-03   0.00000000E+00   0.00000000E+00   0.00000000E+00   1.78160000E-04   1.93200409E-01
   1.05000000E+00   1.50000000E-01   5.00000000E-01   0.00000000E+00   9.41237278E-01   1.67217371E-03   0.00000000E+00   0.00000000E+00   0.00000000E+00   1.78160000E-04   1.93200409E-01
   1.15000000E+00   1.50000000E-01   5.00000000E-01   0.00000000E+00   9.41411888E-01   1.66664092E-03   0.00000000E+00   0.00000000E+00   0.00000000E+00   1.78160000E-04   1.93200409E-01
   1.25000000E+00   1.50000000E-01   5.00000000E-01   0.00000000E+00   9.41562239E-01   1.66523541E-03   0.00000000E+00   0.00000000E+00   0.00000000E+00   1.78160000E-04   1.93200409E-01
   1.35000000E+00   1.50000000E-01   5.00000000E-01   0.00000000E+00   9.41692299E-01   1.66599034E-03   0.00000000E+00   0.00000000E+00   0.00000000E+00   1.78160000E-04   1.93200409E-01
   1.45000000E+00   1.50000000E-01   5.00000000E-01   0.00000000E+00   9.41805101E-01   1.66791445E-03   0.00000000E+00   0.00000000E+00   0.00000000E+00   1.78160000E-04   1.93200409E-01
   1.55000000E+00   1.50000000E-01   5.00000000E-01   0.00000000E+00   9.41903298E-01   1.67048695E-03   0.00000000E+00   0.00000000E+00   0.00000000E+00   1.78160000E-04   1.93200409E-01
   1.65000000E+00   1.50000000E-01   5.00000000E-01   0.00000000E+00   9.41989214E-01   1.67341552E-03   0.00000000E+00   0.00000000E+00   0.00000000E+00   1.78160000E-04   1.93200409E-01
   1.75000000E+00   1.50000000E-01   5.00000000E-01   0.00000000E+00   9.42064839E-01   1.67652186E-03   0.00000000E+00   0.00000000E+00   0.00000000E+00   1.78160000E-04   1.93200409E-01
   1.85000000E+00   1.50000000E-01   5.00000000E-01   0.00000000E+00   9.42131839E-01   1.67969125E-03   0.00000000E+00   0.00000000E+00   0.00000000E+00   1.78160000E-04   1.93200409E-01
   1.95000000E+00   1.50000000E-01   5.00000000E-01   0.00000000E+00   9.42191586E-01   1.68284933E-03   0.00000000E+00   0.00000000E+00   0.00000000E+00   1.78160000E-04   1.93200409E-01
   2.05000000E+00   1.50000000E-01   5.00000000E-01   0.00000000E+00   9.42245205E-01   1.68594865E-03   0.00000000E+00   0.00000000E+00   0.00000000E+00   1.78160000E-04   1.93200409E-01
   2.15000000E+00   1.50000000E-01   5.00000000E-01   0.00000000E+00   9.42293620E-01   1.68895822E-03   0.00000000E+00   0.00000000E+00   0.00000000E+00   1.78160000E-04   1.93200409E-01
   2.25000000E+00   1.50000000E-01   5.00000000E-01   0.00000000E+00   9.42337590E-01   1.69185817E-03   0.00000000E+00   0.00000000E+00   0.00000000E+00   1.78160000E-04   1.93200409E-01
   2.35000000E+00   1.50000000E-01   5.00000000E-01   0.00000000E+00   9.42377740E-01   1.69463596E-03   0.00000000E+00   0.00000000E+00   0.00000000E+00   1.78160000E-04   1.93200409E-01
   2.45000000E+00   1.50000000E-01   5.00000000E-01   0.00000000E+00   9.42414584E-01   1.69728373E-03   0.00000000E+00   0.00000000E+00   0.00000000E+00   1.78160000E-04   1.93200409E-01
   2.55000000E+00   1.50000000E-01   5.00000000E-01   0.00000000E+00   9.42448549E-01   1.69979764E-03   0.00000000E+00   0.00000000E+00   0.00000000E+00   1.78160000E-04   1.93200409E-01
   2.65000000E+00   1.50000000E-01   5.00000000E-01   0.00000000E+00   9.42479988E-01   1.70217749E-03   0.00000000E+00   0.00000000E+00   0.00000000E+00   1.78160000E-04   1.93200409E-01
   2.75000000E+00   1.50000000E-01   5.00000000E-01   0.00000000E+00   9.42509193E-01   1.70442595E-03   0.00000000E+00   0.00000000E+00   0.00000000E+00   1.78160000E-04   1.93200409E-01
   2.85000000E+00   1.50000000E-01   5.00000000E-01   0.00000000E+00   9.42536406E-01   1.70654822E-03   0.00000000E+00   0.00000000E+00   0.00000000E+00   1.78160000E-04   1.93200409E-01
   2.95000000E+00   1.50000000E-01   5.00000000E-01   0.00000000E+00   9.42561829E-01   1.70855141E-03   0.00000000E+00   0.00000000E+00   0.00000000E+00   1.78160000E-04   1.93200409E-01
   3.05000000E+00   1.50000000E-01   5.00000000E-01   0.00000000E+00   9.42585608E-01   1.71044487E-03   0.00000000E+00   0.00000000E+00   0.00000000E+00   1.78160000E-04   1.93200409E-01
   3.15000000E+00   1.50000000E-01   5.00000000E-01   0.00000000E+00   9.42607890E-01   1.71223590E-03   0.00000000E+00   0.00000000E+00   0.00000000E+00   1.78160000E-04   1.93200409E-01
   3.25000000E+00   1.50000000E-01   5.00000000E-01   0.00000000E+00   9.42628803E-01   1.71393236E-03   0.00000000E+00   0.00000000E+00   0.00000000E+00   1.78160000E-04   1.93200409E-01
   3.35000000E+00   1.50000000E-01   5.00000000E-01   0.00000000E+00   9.42648453E-01   1.71554211E-03   0.00000000E+00   0.00000000E+00   0.00000000E+00   1.78160000E-04   1.93200409E-01
   3.45000000E+00   1.50000000E-01   5.00000000E-01   0.00000000E+00   9.42666934E-01   1.71707251E-03   0.00000000E+00   0.00000000E+00   0.00000000E+00   1.78160000E-04   1.93200409E-01
   3.55000000E+00   1.50000000E-01   5.00000000E-01   0.00000000E+00   9.42684323E-01   1.71853015E-03   0.00000000E+00   0.00000000E+00   0.00000000E+00   1.78160000E-04   1.93200409E-01
   3.65000000E+00   1.50000000E-01   5.00000000E-01   0.00000000E+00   9.42700688E-01   1.71992075E-03   0.00000000E+00   0.00000000E+00   0.00000000E+00   1.78160000E-04   1.93200409E-01
   3.75000000E+00   1.50000000E-01   5.00000000E-01   0.00000000E+00   9.42716088E-01   1.72124934E-03   0.00000000E+00   0.00000000E+00   0.00000000E+00   1.78160000E-04   1.93200409E-01
   3.85000000E+00   1.50000000E-01   5.00000000E-01   0.00000000E+00   9.42730569E-01   1.72252031E-03   0.00000000E+00   0.00000000E+00   0.00000000E+00   1.78160000E-04   1.93200409E-01
   3.95000000E+00   1.50000000E-01   5.00000000E-01   0.00000000E+00   9.42744173E-01   1.72373738E-03   0.00000000E+00   0.00000000E+00   0.00000000E+00   1.78160000E-04   1.93200409E-01
   4.05000000E+00   1.50000000E-01   5.00000000E-01   0.00000000E+00   9.42756932E-01   1.72490356E-03   0.00000000E+00   0.00000000E+00   0.00000000E+00   1.78160000E-04   1.93200409E-01
   4.15000000E+00   1.50000000E-01   5.00000000E-01   0.00000000E+00   9.42768874E-01   1.72602135E-03   0.00000000E+00   0.00000000E+00   0.00000000E+00   1.78160000E-04   1.93200409E-01
   4.25000000E+00   1.50000000E-01   5.00000000E-01   0.00000000E+00   9.42780021E-01   1.72709248E-03   0.00000000E+00   0.00000000E+00   0.00000000E+00   1.78160000E-04   1.93200409E-01
   4.35000000E+00   1.50000000E-01   5.00000000E-01   0.00000000E+00   9.42790399E-01   1.72811780E-03   0.00000000E+00   0.00000000E+00   0.00000000E+00   1.78160000E-04   1.93200409E-01
   4.45000000E+00   1.50000000E-01   5.00000000E-01   0.00000000E+00   9.42800036E-01   1.72909726E-03   0.00000000E+00   0.00000000E+00   0.00000000E+00   1.78160000E-04   1.93200409E-01
   4.55000000E+00   1.50000000E-01   5.00000000E-01   0.00000000E+00   9.42808971E-01   1.73002971E-03   0.00000000E+00   0.00000000E+00   0.00000000E+00   1.78160000E-04   1.93200409E-01
   4.65000000E+00   1.50000000E-01   5.00000000E-01   0.00000000E+00   9.42817259E-01   1.73091298E-03   0.00000000E+00   0.00000000E+00   0.00000000E+00   1.78160000E-04   1.93200409E-01
   4.75000000E+00   1.50000000E-01   5.00000000E-01   0.00000000E+00   9.42824975E-01   1.73174418E-03   0.00000000E+00   0.00000000E+00   0.00000000E+00   1.78160000E-04   1.93200409E-01
   4.85000000E+00   1.50000000E-01   5.00000000E-01   0.00000000E+00   9.42832220E-01   1.73252037E-03   0.00000000E+00   0.00000000E+00   0.00000000E+00   1.78160000E-04   1.93200409E-01
   4.95000000E+00   1.50000000E-01   5.00000000E-01   0.00000000E+00   9.42839113E-01   1.73323947E-03   0.00000000E+00   0.00000000E+00   0.00000000E+00   1.78160000E-04   1.93200409E-01
   5.05000000E+00   1.50000000E-01   5.00000000E-01   0.00000000E+00   9.42845782E-01   1.73390156E-03   0.00000000E+00   0.00000000E+00   0.00000000E+00   1.78160000E-04   1.93200409E-01
   5.15000000E+00   1.50000000E-01   5.00000000E-01   0.00000000E+00   9.42852352E-01   1.73450994E-03   0.00000000E+00   0.00000000E+00   0.00000000E+00   1.78160000E-04   1.93200409E-01
   5.25000000E+00   1.50000000E-01   5.00000000E-01   0.00000000E+00   9.42858925E-01   1.73507164E-03   0.00000000E+00   0.00000000E+00   0.00000000E+00   1.78160000E-04   1.93200409E-01
   5.35000000E+00   1.50000000E-01   5.00000000E-01   0.00000000E+00   9.42865568E-01   1.73559696E-03   0.00000000E+00   0.00000000E+00   0.00000000E+00   1.78160000E-04   1.93200409E-01
   5.45000000E+00   1.50000000E-01   5.00000000E-01   0.00000000E+00   9.42872310E-01   1.73609810E-03   0.00000000E+00   0.00000000E+00   0.00000000E+00   1.78160000E-04   1.93200409E-01
   5.55000000E+00   1.50000000E-01   5.00000000E-01   0.00000000E+00   9.42879142E-01   1.73658775E-03   0.00000000E+00   0.00000000E+00   0.00000000E+00   1.78160000E-04   1.93200409E-01
   5.65000000E+00   1.50000000E-01   5.00000000E-01   0.00000000E+00   9.42886024E-01   1.73707813E-03   0.00000000E+00   0.00000000E+00   0.00000000E+00   1.78160000E-04   1.93200409E-01