 TITLE = "Total Concentrations (mol/kgw)" 
VARIABLES = "X"          "Y"              "Z"            "H+"             "CO3--"          "SO4--"          "Cl-"            "Ca++"           "Mg++"           "Na+"            "K+"             "Fe++"           "Fe+++"          "HS-"            "CH3COO-"        "O2(aq)"         "S(aq)"          "Br-"           
 ZONE I=         100 , J=          20 , K=           1  F=POINT
   5.00000000E-02   5.00000000E-02   5.00000000E-01   5.17332269E-04   5.26653216E-04   6.24245173E-02   1.69000000E-02   1.38566446E-02   1.85000000E-02   1.04000000E-01   5.12000000E-04   7.59262323E-07   1.11351095E-18   1.99121358E-08   1.75329185E-04   2.25713789E-05   1.98785314E-07   1.00000000E-01
   1.50000000E-01   5.00000000E-02   5.00000000E-01   6.80823366E-04   6.80797936E-04   6.23662120E-02   1.69000000E-02   1.38696927E-02   1.85000000E-02   1.04000000E-01   5.12000000E-04   6.96330933E-06   2.42398583E-18   3.85308222E-05   1.82711768E-04   1.88160459E-08   1.98784428E-07   1.00000000E-01
   2.50000000E-01   5.00000000E-02   5.00000000E-01   9.42721771E-04   9.19546772E-04   6.22629960E-02   1.69000000E-02   1.38888389E-02   1.85000000E-02   1.04000000E-01   5.12000000E-04   5.31728654E-06   5.99009827E-18   1.20673595E-04   1.44129405E-04   1.32984264E-11   1.98784873E-07   1.00000000E-01
   3.50000000E-01   5.00000000E-02   5.00000000E-01   1.23272768E-03   1.17614380E-03   6.21505155E-02   1.69000000E-02   1.39092860E-02   1.85000000E-02   1.04000000E-01   5.12000000E-04   7.35340080E-06   1.24578235E-17   2.15418762E-04   9.09675770E-05   9.05027073E-15   1.98785628E-07   1.00000000E-01
   4.50000000E-01   5.00000000E-02   5.00000000E-01   1.53572540E-03   1.43736391E-03   6.20320604E-02   1.69000000E-02   1.39307692E-02   1.85000000E-02   1.04000000E-01   5.12000000E-04   1.06719820E-05   2.25116961E-17   3.10833439E-04   4.18698233E-05   6.06607987E-18   1.98786710E-07   1.00000000E-01
   5.50000000E-01   5.00000000E-02   5.00000000E-01   1.84410901E-03   1.69792842E-03   6.19091898E-02   1.69000000E-02   1.39535850E-02   1.85000000E-02   1.04000000E-01   5.12000000E-04   1.46279730E-05   3.66764723E-17   3.99849102E-04   1.36178166E-05   4.03436673E-21   1.98787895E-07   1.00000000E-01
   6.50000000E-01   5.00000000E-02   5.00000000E-01   2.17919716E-03   1.97558719E-03   6.17767404E-02   1.69000000E-02   1.39788735E-02   1.85000000E-02   1.04000000E-01   5.12000000E-04   1.94048997E-05   5.70007546E-17   4.91636945E-04   3.55095206E-06   2.66918245E-24   1.98789031E-07   1.00000000E-01
   7.50000000E-01   5.00000000E-02   5.00000000E-01   2.56633043E-03   2.28899659E-03   6.16306041E-02   1.69000000E-02   1.40073239E-02   1.85000000E-02   1.04000000E-01   5.12000000E-04   2.56159555E-05   8.72573856E-17   5.99352825E-04   8.49760018E-07   1.75836675E-27   1.98790050E-07   1.00000000E-01
   8.50000000E-01   5.00000000E-02   5.00000000E-01   3.01150737E-03   2.64032970E-03   6.14723579E-02   1.69000000E-02   1.40385753E-02   1.85000000E-02   1.04000000E-01   5.12000000E-04   3.36564313E-05   1.31475120E-16   7.27380108E-04   1.97385710E-07   1.15398913E-30   1.98790929E-07   1.00000000E-01
   9.50000000E-01   5.00000000E-02   5.00000000E-01   3.50844819E-03   3.02251833E-03   6.13062158E-02   1.69000000E-02   1.40717833E-02   1.85000000E-02   1.04000000E-01   5.12000000E-04   4.36367440E-05   1.93269294E-16   8.74348169E-04   4.55562101E-08   7.54756824E-34   1.98791667E-07   1.00000000E-01
   1.05000000E+00   5.00000000E-02   5.00000000E-01   4.04566909E-03   3.42550166E-03   6.11369071E-02   1.69000000E-02   1.41059938E-02   1.85000000E-02   1.04000000E-01   5.12000000E-04   5.54483910E-05   2.75377422E-16   1.03646018E-03   1.08503896E-08   4.91980898E-37   1.98792242E-07   1.00000000E-01
   1.15000000E+00   5.00000000E-02   5.00000000E-01   4.60964178E-03   3.83881826E-03   6.09688243E-02   1.69000000E-02   1.41403016E-02   1.85000000E-02   1.04000000E-01   5.12000000E-04   6.88139813E-05   3.79207094E-16   1.20887803E-03   3.01471238E-09   3.19487507E-40   1.98792686E-07   1.00000000E-01
   1.25000000E+00   5.00000000E-02   5.00000000E-01   5.18763353E-03   4.25355312E-03   6.08053185E-02   1.69000000E-02   1.41739931E-02   1.85000000E-02   1.04000000E-01   5.12000000E-04   8.33710949E-05   5.04831297E-16   1.38684605E-03   1.26288035E-09   2.06480852E-43   1.98793032E-07   1.00000000E-01
   1.35000000E+00   5.00000000E-02   5.00000000E-01   5.76619916E-03   4.66104174E-03   6.06493618E-02   1.69000000E-02   1.42064174E-02   1.85000000E-02   1.04000000E-01   5.12000000E-04   9.86525901E-05   6.50491694E-16   1.56518537E-03   8.70237763E-10   1.32515766E-46   1.98793297E-07   1.00000000E-01
   1.45000000E+00   5.00000000E-02   5.00000000E-01   6.32963852E-03   5.05171965E-03   6.05040939E-02   1.69000000E-02   1.42368781E-02   1.85000000E-02   1.04000000E-01   5.12000000E-04   1.14045538E-04   8.11928440E-16   1.73766278E-03   7.44934150E-10   8.39744208E-50   1.98793494E-07   1.00000000E-01
   1.55000000E+00   5.00000000E-02   5.00000000E-01   6.86430104E-03   5.41797687E-03   6.03717817E-02   1.69000000E-02   1.42648529E-02   1.85000000E-02   1.04000000E-01   5.12000000E-04   1.28922425E-04   9.83489652E-16   1.89837669E-03   4.20235784E-10   5.18583270E-53   1.98793639E-07   1.00000000E-01
   1.65000000E+00   5.00000000E-02   5.00000000E-01   7.37744197E-03   5.76625937E-03   6.02493006E-02   1.69000000E-02   1.42909435E-02   1.85000000E-02   1.04000000E-01   5.12000000E-04   1.43293713E-04   1.16544622E-15   2.04861268E-03   1.80539608E-10   3.05242197E-56   1.98793758E-07   1.00000000E-01
   1.75000000E+00   5.00000000E-02   5.00000000E-01   7.86351726E-03   6.09389186E-03   6.01367917E-02   1.69000000E-02   1.43150629E-02   1.85000000E-02   1.04000000E-01   5.12000000E-04   1.56865690E-04   1.35388380E-15   2.18635862E-03   6.57978983E-11   1.72977279E-59   1.98793873E-07   1.00000000E-01
   1.85000000E+00   5.00000000E-02   5.00000000E-01   8.31587187E-03   6.39733502E-03   6.00347177E-02   1.69000000E-02   1.43370604E-02   1.85000000E-02   1.04000000E-01   5.12000000E-04   1.69347207E-04   1.54374451E-15   2.30965871E-03   2.16515948E-11   9.58304815E-63   1.98794000E-07   1.00000000E-01
   1.95000000E+00   5.00000000E-02   5.00000000E-01   8.73117062E-03   6.67514979E-03   5.99429447E-02   1.69000000E-02   1.43569240E-02   1.85000000E-02   1.04000000E-01   5.12000000E-04   1.80573442E-04   1.73079576E-15   2.41777678E-03   6.66792340E-12   5.24882989E-66   1.98794146E-07   1.00000000E-01
   2.05000000E+00   5.00000000E-02   5.00000000E-01   9.10964379E-03   6.92809328E-03   5.98607653E-02   1.69000000E-02   1.43747783E-02   1.85000000E-02   1.04000000E-01   5.12000000E-04   1.90512751E-04   1.91230344E-15   2.51117394E-03   1.96290276E-12   2.86132084E-69   1.98794311E-07   1.00000000E-01
   2.15000000E+00   5.00000000E-02   5.00000000E-01   9.45559149E-03   7.15937373E-03   5.97867900E-02   1.69000000E-02   1.43909060E-02   1.85000000E-02   1.04000000E-01   5.12000000E-04   1.99287564E-04   2.08775631E-15   2.59169239E-03   5.60537951E-13   1.55808891E-72   1.98794492E-07   1.00000000E-01
   2.25000000E+00   5.00000000E-02   5.00000000E-01   9.77080110E-03   7.37048687E-03   5.97203906E-02   1.69000000E-02   1.44054368E-02   1.85000000E-02   1.04000000E-01   5.12000000E-04   2.06943169E-04   2.25591369E-15   2.66020954E-03   1.56452828E-13   8.49088439E-76   1.98794679E-07   1.00000000E-01
   2.35000000E+00   5.00000000E-02   5.00000000E-01   1.00564246E-02   7.56245003E-03   5.96611710E-02   1.69000000E-02   1.44184544E-02   1.85000000E-02   1.04000000E-01   5.12000000E-04   2.13510454E-04   2.41549593E-15   2.71734192E-03   4.28653521E-14   4.63495869E-79   1.98794862E-07   1.00000000E-01
   2.45000000E+00   5.00000000E-02   5.00000000E-01   1.03145638E-02   7.73680714E-03   5.96085652E-02   1.69000000E-02   1.44300801E-02   1.85000000E-02   1.04000000E-01   5.12000000E-04   2.19065403E-04   2.56597533E-15   2.76403462E-03   1.15676693E-14   2.53539321E-82   1.98795034E-07   1.00000000E-01
   2.55000000E+00   5.00000000E-02   5.00000000E-01   1.05475674E-02   7.89519875E-03   5.95619707E-02   1.69000000E-02   1.44404441E-02   1.85000000E-02   1.04000000E-01   5.12000000E-04   2.23721812E-04   2.70724527E-15   2.80134164E-03   3.08318226E-15   1.38997778E-85   1.98795190E-07   1.00000000E-01
   2.65000000E+00   5.00000000E-02   5.00000000E-01   1.07577493E-02   8.03917902E-03   5.95207837E-02   1.69000000E-02   1.44496667E-02   1.85000000E-02   1.04000000E-01   5.12000000E-04   2.27495107E-04   2.83942650E-15   2.83011718E-03   8.13249133E-16   7.63712501E-89   1.98795328E-07   1.00000000E-01
   2.75000000E+00   5.00000000E-02   5.00000000E-01   1.09471221E-02   8.17010228E-03   5.94844716E-02   1.69000000E-02   1.44578620E-02   1.85000000E-02   1.04000000E-01   5.12000000E-04   2.30479899E-04   2.96271905E-15   2.85120775E-03   2.12618989E-16   4.20513591E-92   1.98795447E-07   1.00000000E-01
   2.85000000E+00   5.00000000E-02   5.00000000E-01   1.11174669E-02   8.28914722E-03   5.94525423E-02   1.69000000E-02   1.44651304E-02   1.85000000E-02   1.04000000E-01   5.12000000E-04   2.32751475E-04   3.07736905E-15   2.86534861E-03   5.51680207E-17   2.32015721E-95   1.98795549E-07   1.00000000E-01
   2.95000000E+00   5.00000000E-02   5.00000000E-01   1.12703518E-02   8.39733725E-03   5.94245497E-02   1.69000000E-02   1.44715622E-02   1.85000000E-02   1.04000000E-01   5.12000000E-04   2.34373458E-04   3.18364642E-15   2.87318315E-03   1.42213124E-17   1.28263328E-98   1.98795638E-07   1.00000000E-01
   3.05000000E+00   5.00000000E-02   5.00000000E-01   1.14071693E-02   8.49557073E-03   5.94000927E-02   1.69000000E-02   1.44772379E-02   1.85000000E-02   1.04000000E-01   5.12000000E-04   2.35399728E-04   3.28183936E-15   2.87527473E-03   3.64537380E-18   7.10401042-102   1.98795716E-07   1.00000000E-01
   3.15000000E+00   5.00000000E-02   5.00000000E-01   1.15291766E-02   8.58465122E-03   5.93788132E-02   1.69000000E-02   1.44822297E-02   1.85000000E-02   1.04000000E-01   5.12000000E-04   2.35881012E-04   3.37225695E-15   2.87213093E-03   9.29866949E-19   3.94185567-105   1.98795787E-07   1.00000000E-01
   3.25000000E+00   5.00000000E-02   5.00000000E-01   1.16375342E-02   8.66531286E-03   5.93603909E-02   1.69000000E-02   1.44866024E-02   1.85000000E-02   1.04000000E-01   5.12000000E-04   2.35864653E-04   3.45523378E-15   2.86421751E-03   2.36189144E-19   2.19123107-108   1.98795854E-07   1.00000000E-01
   3.35000000E+00   5.00000000E-02   5.00000000E-01   1.17333296E-02   8.73823708E-03   5.93445404E-02   1.69000000E-02   1.44904144E-02   1.85000000E-02   1.04000000E-01   5.12000000E-04   2.35395261E-04   3.53113045E-15   2.85196888E-03   5.97739743E-20   1.22032626-111   1.98795919E-07   1.00000000E-01
   3.45000000E+00   5.00000000E-02   5.00000000E-01   1.18175898E-02   8.80406144E-03   5.93310070E-02   1.69000000E-02   1.44937186E-02   1.85000000E-02   1.04000000E-01   5.12000000E-04   2.34515257E-04   3.60032952E-15   2.83579430E-03   1.50801862E-20   6.80911275-115   1.98795983E-07   1.00000000E-01
   3.55000000E+00   5.00000000E-02   5.00000000E-01   1.18912842E-02   8.86338265E-03   5.93195646E-02   1.69000000E-02   1.44965628E-02   1.85000000E-02   1.04000000E-01   5.12000000E-04   2.33264922E-04   3.66322743E-15   2.81608012E-03   3.79450277E-21   3.80693203-118   1.98796048E-07   1.00000000E-01
   3.65000000E+00   5.00000000E-02   5.00000000E-01   1.19553209E-02   8.91675565E-03   5.93100127E-02   1.69000000E-02   1.44989897E-02   1.85000000E-02   1.04000000E-01   5.12000000E-04   2.31682380E-04   3.72022406E-15   2.79318961E-03   9.52692745E-22   2.13299786-121   1.98796112E-07   1.00000000E-01
   3.75000000E+00   5.00000000E-02   5.00000000E-01   1.20105415E-02   8.96469086E-03   5.93021746E-02   1.69000000E-02   1.45010378E-02   1.85000000E-02   1.04000000E-01   5.12000000E-04   2.29803229E-04   3.77171142E-15   2.76746092E-03   2.38772262E-22   1.19789477-124   1.98796178E-07   1.00000000E-01
   3.85000000E+00   5.00000000E-02   5.00000000E-01   1.20577143E-02   9.00765147E-03   5.92958951E-02   1.69000000E-02   1.45027411E-02   1.85000000E-02   1.04000000E-01   5.12000000E-04   2.27660304E-04   3.81806357E-15   2.73920485E-03   5.97671068E-23   6.74504282-128   1.98796243E-07   1.00000000E-01
   3.95000000E+00   5.00000000E-02   5.00000000E-01   1.20975315E-02   9.04605245E-03   5.92910387E-02   1.69000000E-02   1.45041295E-02   1.85000000E-02   1.04000000E-01   5.12000000E-04   2.25283402E-04   3.85962924E-15   2.70870293E-03   1.50002446E-23   3.81029440-131   1.98796307E-07   1.00000000E-01
   4.05000000E+00   5.00000000E-02   5.00000000E-01   1.21306104E-02   9.08026228E-03   5.92874865E-02   1.69000000E-02   1.45052294E-02   1.85000000E-02   1.04000000E-01   5.12000000E-04   2.22699324E-04   3.89672853E-15   2.67620700E-03   4.14400421E-24   2.16461966-134   1.98796370E-07   1.00000000E-01
   4.15000000E+00   5.00000000E-02   5.00000000E-01   1.21575005E-02   9.11060794E-03   5.92851344E-02   1.69000000E-02   1.45060640E-02   1.85000000E-02   1.04000000E-01   5.12000000E-04   2.19931908E-04   3.92965406E-15   2.64194030E-03   3.21840214E-24   1.26029864-137   1.98796432E-07   1.00000000E-01
   4.25000000E+00   5.00000000E-02   5.00000000E-01   1.21786944E-02   9.13738245E-03   5.92838894E-02   1.69000000E-02   1.45066541E-02   1.85000000E-02   1.04000000E-01   5.12000000E-04   2.17002397E-04   3.95867588E-15   2.60610037E-03   9.64205940E-24   1.02533444-140   1.98796492E-07   1.00000000E-01
   4.35000000E+00   5.00000000E-02   5.00000000E-01   1.21946411E-02   9.16085343E-03   5.92836667E-02   1.69000000E-02   1.45070186E-02   1.85000000E-02   1.04000000E-01   5.12000000E-04   2.13929796E-04   3.98404831E-15   2.56886297E-03   2.61190578E-23   2.43377022-143   1.98796549E-07   1.00000000E-01
   4.45000000E+00   5.00000000E-02   5.00000000E-01   1.22057581E-02   9.18127060E-03   5.92843881E-02   1.69000000E-02   1.45071750E-02   1.85000000E-02   1.04000000E-01   5.12000000E-04   2.10731266E-04   4.00601612E-15   2.53038603E-03   4.76573668E-23   1.95291667-145   1.98796604E-07   1.00000000E-01
   4.55000000E+00   5.00000000E-02   5.00000000E-01   1.22124392E-02   9.19887073E-03   5.92859801E-02   1.69000000E-02   1.45071397E-02   1.85000000E-02   1.04000000E-01   5.12000000E-04   2.07422494E-04   4.02481830E-15   2.49081317E-03   6.51561591E-23   1.39711706-146   1.98796656E-07   1.00000000E-01
   4.65000000E+00   5.00000000E-02   5.00000000E-01   1.22150590E-02   9.21387998E-03   5.92883734E-02   1.69000000E-02   1.45069282E-02   1.85000000E-02   1.04000000E-01   5.12000000E-04   2.04017993E-04   4.04068919E-15   2.45027628E-03   7.34668448E-23   3.33044923-147   1.98796705E-07   1.00000000E-01
   4.75000000E+00   5.00000000E-02   5.00000000E-01   1.22139738E-02   9.22651447E-03   5.92915032E-02   1.69000000E-02   1.45065552E-02   1.85000000E-02   1.04000000E-01   5.12000000E-04   2.00531121E-04   4.05385770E-15   2.40889704E-03   7.30837146E-23   8.56216452-148   1.98796751E-07   1.00000000E-01
   4.85000000E+00   5.00000000E-02   5.00000000E-01   1.22095219E-02   9.23697986E-03   5.92953094E-02   1.69000000E-02   1.45060344E-02   1.85000000E-02   1.04000000E-01   5.12000000E-04   1.96974272E-04   4.06454576E-15   2.36678820E-03   6.73036606E-23   1.89292684-148   1.98796794E-07   1.00000000E-01
   4.95000000E+00   5.00000000E-02   5.00000000E-01   1.22020236E-02   9.24547148E-03   5.92997359E-02   1.69000000E-02   1.45053786E-02   1.85000000E-02   1.04000000E-01   5.12000000E-04   1.93358963E-04   4.07296739E-15   2.32405469E-03   5.94079469E-23   3.38658543-149   1.98796832E-07   1.00000000E-01
   5.05000000E+00   5.00000000E-02   5.00000000E-01   1.21917882E-02   9.25217824E-03   5.93047297E-02   1.69000000E-02   1.45045999E-02   1.85000000E-02   1.04000000E-01   5.12000000E-04   1.89696104E-04   4.07933249E-15   2.28079636E-03   5.15991737E-23   4.62313242-150   1.98796867E-07   1.00000000E-01
   5.15000000E+00   5.00000000E-02   5.00000000E-01   1.21791584E-02   9.25731008E-03   5.93102311E-02   1.69000000E-02   1.45037122E-02   1.85000000E-02   1.04000000E-01   5.12000000E-04   1.85997391E-04   4.08387796E-15   2.23712256E-03   4.55931533E-23   5.34227556-151   1.98796897E-07   1.00000000E-01
   5.25000000E+00   5.00000000E-02   5.00000000E-01   1.21643909E-02   9.26102415E-03   5.93161976E-02   1.69000000E-02   1.45027252E-02   1.85000000E-02   1.04000000E-01   5.12000000E-04   1.82271625E-04   4.08678161E-15   2.19311443E-03   4.16138988E-23   5.25942145-152   1.98796923E-07   1.00000000E-01
   5.35000000E+00   5.00000000E-02   5.00000000E-01   1.21477007E-02   9.26345204E-03   5.93225943E-02   1.69000000E-02   1.45016472E-02   1.85000000E-02   1.04000000E-01   5.12000000E-04   1.78526177E-04   4.08819318E-15   2.14883954E-03   3.92005591E-23   4.16727771-153   1.98796943E-07   1.00000000E-01
   5.45000000E+00   5.00000000E-02   5.00000000E-01   1.21292811E-02   9.26471209E-03   5.93293895E-02   1.69000000E-02   1.45004857E-02   1.85000000E-02   1.04000000E-01   5.12000000E-04   1.74767701E-04   4.08824835E-15   2.10435868E-03   3.77996214E-23   2.53545722-154   1.98796958E-07   1.00000000E-01
   5.55000000E+00   5.00000000E-02   5.00000000E-01   1.21093046E-02   9.26490949E-03   5.93365541E-02   1.69000000E-02   1.44992474E-02   1.85000000E-02   1.04000000E-01   5.12000000E-04   1.71002149E-04   4.08706863E-15   2.05972639E-03   3.69508295E-23   1.18709813-155   1.98796968E-07   1.00000000E-01
   5.65000000E+00   5.00000000E-02   5.00000000E-01   1.20879234E-02   9.26413668E-03   5.93440612E-02   1.69000000E-02   1.44979383E-02   1.85000000E-02   1.04000000E-01   5.12000000E-04   1.67234810E-04   4.08476164E-15   2.01499182E-03   3.62431424E-23   4.40278940-157   1.98796972E-07   1.00000000E-01
   5.75000000E+00   5.00000000E-02   5.00000000E-01   1.20652707E-02   9.26247384E-03   5.93518856E-02   1.69000000E-02   1.44965642E-02   1.85000000E-02   1.04000000E-01   5.12000000E-04   1.63470575E-04   4.08142168E-15   1.97020007E-03   3.50103560E-23   1.37676265-158   1.98796970E-07   1.00000000E-01
   5.85000000E+00   5.00000000E-02   5.00000000E-01   1.20414630E-02   9.25998995E-03   5.93600032E-02   1.69000000E-02   1.44951302E-02   1.85000000E-02   1.04000000E-01   5.12000000E-04   1.59713929E-04   4.07713069E-15   1.92539342E-03   3.19774265E-23   1.05419643-159   1.98796963E-07   1.00000000E-01
   5.95000000E+00   5.00000000E-02   5.00000000E-01   1.20166021E-02   9.25674387E-03   5.93683907E-02   1.69000000E-02   1.44936412E-02   1.85000000E-02   1.04000000E-01   5.12000000E-04   1.55969135E-04   4.07195963E-15   1.88061270E-03   2.66900334E-23   1.10106147-161   1.98796950E-07   1.00000000E-01
   6.05000000E+00   5.00000000E-02   5.00000000E-01   1.19907776E-02   9.25278584E-03   5.93770250E-02   1.69000000E-02   1.44921019E-02   1.85000000E-02   1.04000000E-01   5.12000000E-04   1.52240305E-04   4.06597000E-15   1.83589820E-03   2.00969039E-23   7.01156328-164   1.98796932E-07   1.00000000E-01
   6.15000000E+00   5.00000000E-02   5.00000000E-01   1.19640692E-02   9.24815898E-03   5.93858837E-02   1.69000000E-02   1.44905166E-02   1.85000000E-02   1.04000000E-01   5.12000000E-04   1.48531476E-04   4.05921549E-15   1.79129022E-03   1.36829720E-23   3.56972283-166   1.98796910E-07   1.00000000E-01
   6.25000000E+00   5.00000000E-02   5.00000000E-01   1.19365489E-02   9.24290085E-03   5.93949443E-02   1.69000000E-02   1.44888896E-02   1.85000000E-02   1.04000000E-01   5.12000000E-04   1.44846636E-04   4.05174374E-15   1.74682900E-03   8.49919825E-24   1.63076298-168   1.98796876E-07   1.00000000E-01
   6.35000000E+00   5.00000000E-02   5.00000000E-01   1.19082828E-02   9.23704496E-03   5.94041846E-02   1.69000000E-02   1.44872252E-02   1.85000000E-02   1.04000000E-01   5.12000000E-04   1.41189625E-04   4.04359790E-15   1.70255430E-03   4.86787561E-24   7.03238637-171   1.98796833E-07   1.00000000E-01
   6.45000000E+00   5.00000000E-02   5.00000000E-01   1.18793330E-02   9.23062209E-03   5.94135829E-02   1.69000000E-02   1.44855273E-02   1.85000000E-02   1.04000000E-01   5.12000000E-04   1.37564171E-04   4.03481806E-15   1.65850502E-03   2.59721351E-24   2.90585701-173   1.98796787E-07   1.00000000E-01
   6.55000000E+00   5.00000000E-02   5.00000000E-01   1.18497583E-02   9.22366137E-03   5.94231179E-02   1.69000000E-02   1.44837999E-02   1.85000000E-02   1.04000000E-01   5.12000000E-04   1.33973867E-04   4.02544240E-15   1.61471876E-03   1.30268396E-24   1.14848228-175   1.98796737E-07   1.00000000E-01
   6.65000000E+00   5.00000000E-02   5.00000000E-01   1.18196159E-02   9.21619105E-03   5.94327688E-02   1.69000000E-02   1.44820468E-02   1.85000000E-02   1.04000000E-01   5.12000000E-04   1.30422139E-04   4.01550801E-15   1.57123162E-03   6.19100934E-25   4.31426025-178   1.98796686E-07   1.00000000E-01
   6.75000000E+00   5.00000000E-02   5.00000000E-01   1.17889622E-02   9.20823942E-03   5.94425154E-02   1.69000000E-02   1.44802718E-02   1.85000000E-02   1.04000000E-01   5.12000000E-04   1.26912272E-04   4.00505181E-15   1.52807839E-03   2.80888979E-25   1.54462063-180   1.98796632E-07   1.00000000E-01
   6.85000000E+00   5.00000000E-02   5.00000000E-01   1.17578523E-02   9.19983430E-03   5.94523380E-02   1.69000000E-02   1.44784784E-02   1.85000000E-02   1.04000000E-01   5.12000000E-04   1.23447419E-04   3.99411000E-15   1.48529263E-03   1.22784750E-25   5.47797729-183   1.98796577E-07   1.00000000E-01
   6.95000000E+00   5.00000000E-02   5.00000000E-01   1.17263305E-02   9.19099738E-03   5.94622198E-02   1.69000000E-02   1.44766698E-02   1.85000000E-02   1.04000000E-01   5.12000000E-04   1.20030288E-04   3.98271155E-15   1.44290297E-03   5.19802237E-26   1.91259783-185   1.98796520E-07   1.00000000E-01
   7.05000000E+00   5.00000000E-02   5.00000000E-01   1.16944410E-02   9.18175062E-03   5.94721447E-02   1.69000000E-02   1.44748490E-02   1.85000000E-02   1.04000000E-01   5.12000000E-04   1.16663457E-04   3.97088546E-15   1.40093664E-03   2.14533068E-26   6.49777035-188   1.98796463E-07   1.00000000E-01
   7.15000000E+00   5.00000000E-02   5.00000000E-01   1.16622276E-02   9.17211640E-03   5.94820972E-02   1.69000000E-02   1.44730187E-02   1.85000000E-02   1.04000000E-01   5.12000000E-04   1.13349394E-04   3.95866095E-15   1.35941947E-03   9.24853833E-27   2.13369386-190   1.98796406E-07   1.00000000E-01
   7.25000000E+00   5.00000000E-02   5.00000000E-01   1.16297342E-02   9.16211774E-03   5.94920624E-02   1.69000000E-02   1.44711818E-02   1.85000000E-02   1.04000000E-01   5.12000000E-04   1.10090439E-04   3.94606771E-15   1.31837582E-03   9.69975366E-27   6.77046360-193   1.98796349E-07   1.00000000E-01
   7.35000000E+00   5.00000000E-02   5.00000000E-01   1.15970054E-02   9.15177864E-03   5.95020262E-02   1.69000000E-02   1.44693409E-02   1.85000000E-02   1.04000000E-01   5.12000000E-04   1.06888796E-04   3.93313617E-15   1.27782829E-03   5.43058992E-26   2.08661644-195   1.98796292E-07   1.00000000E-01
   7.45000000E+00   5.00000000E-02   5.00000000E-01   1.15640860E-02   9.14112437E-03   5.95119751E-02   1.69000000E-02   1.44674988E-02   1.85000000E-02   1.04000000E-01   5.12000000E-04   1.03746514E-04   3.91989781E-15   1.23779741E-03   3.74562697E-25   6.31428131-198   1.98796235E-07   1.00000000E-01
   7.55000000E+00   5.00000000E-02   5.00000000E-01   1.15310221E-02   9.13018171E-03   5.95218964E-02   1.69000000E-02   1.44656579E-02   1.85000000E-02   1.04000000E-01   5.12000000E-04   1.00665470E-04   3.90638541E-15   1.19830119E-03   2.10855951E-24   1.91835575-200   1.98796179E-07   1.00000000E-01
   7.65000000E+00   5.00000000E-02   5.00000000E-01   1.14978601E-02   9.11897894E-03   5.95317782E-02   1.69000000E-02   1.44638206E-02   1.85000000E-02   1.04000000E-01   5.12000000E-04   9.76473217E-05   3.89263297E-15   1.15935472E-03   8.79639977E-24   6.09898431-203   1.98796124E-07   1.00000000E-01
   7.75000000E+00   5.00000000E-02   5.00000000E-01   1.14646465E-02   9.10754548E-03   5.95416096E-02   1.69000000E-02   1.44619892E-02   1.85000000E-02   1.04000000E-01   5.12000000E-04   9.46935322E-05   3.87867524E-15   1.12097000E-03   2.47079532E-23   1.78385768-205   1.98796070E-07   1.00000000E-01
   7.85000000E+00   5.00000000E-02   5.00000000E-01   1.14314268E-02   9.09591126E-03   5.95513810E-02   1.69000000E-02   1.44601659E-02   1.85000000E-02   1.04000000E-01   5.12000000E-04   9.18053747E-05   3.86454703E-15   1.08315608E-03   4.58107613E-23   4.44004919-208   1.98796016E-07   1.00000000E-01
   7.95000000E+00   5.00000000E-02   5.00000000E-01   1.13982452E-02   9.08410594E-03   5.95610839E-02   1.69000000E-02   1.44583525E-02   1.85000000E-02   1.04000000E-01   5.12000000E-04   8.89839896E-05   3.85028241E-15   1.04591958E-03   6.35658928E-23   9.39894008-211   1.98795964E-07   1.00000000E-01
   8.05000000E+00   5.00000000E-02   5.00000000E-01   1.13651436E-02   9.07215831E-03   5.95707110E-02   1.69000000E-02   1.44565509E-02   1.85000000E-02   1.04000000E-01   5.12000000E-04   8.62304576E-05   3.83591399E-15   1.00926541E-03   7.28066135E-23   1.73387812-213   1.98795912E-07   1.00000000E-01
   8.15000000E+00   5.00000000E-02   5.00000000E-01   1.13321617E-02   9.06009590E-03   5.95802561E-02   1.69000000E-02   1.44547625E-02   1.85000000E-02   1.04000000E-01   5.12000000E-04   8.35458568E-05   3.82147257E-15   9.73197639E-04   7.37033397E-23   2.86156081-216   1.98795861E-07   1.00000000E-01
   8.25000000E+00   5.00000000E-02   5.00000000E-01   1.12993368E-02   9.04794477E-03   5.95897141E-02   1.69000000E-02   1.44529887E-02   1.85000000E-02   1.04000000E-01   5.12000000E-04   8.09313429E-05   3.80698700E-15   9.37720154E-04   6.92546503E-23   4.32127216-219   1.98795811E-07   1.00000000E-01
   8.35000000E+00   5.00000000E-02   5.00000000E-01   1.12667046E-02   9.03572949E-03   5.95990805E-02   1.69000000E-02   1.44512308E-02   1.85000000E-02   1.04000000E-01   5.12000000E-04   7.83881706E-05   3.79248413E-15   9.02837159E-04   6.25835946E-23   6.08180270-222   1.98795761E-07   1.00000000E-01
   8.45000000E+00   5.00000000E-02   5.00000000E-01   1.12342984E-02   9.02347310E-03   5.96083517E-02   1.69000000E-02   1.44494899E-02   1.85000000E-02   1.04000000E-01   5.12000000E-04   7.59177651E-05   3.77798885E-15   8.68553431E-04   5.57391939E-23   8.09801327-225   1.98795711E-07   1.00000000E-01
   8.55000000E+00   5.00000000E-02   5.00000000E-01   1.12021497E-02   9.01119686E-03   5.96175246E-02   1.69000000E-02   1.44477669E-02   1.85000000E-02   1.04000000E-01   5.12000000E-04   7.35216749E-05   3.76352384E-15   8.34874240E-04   4.96800538E-23   1.03282377-227   1.98795661E-07   1.00000000E-01
   8.65000000E+00   5.00000000E-02   5.00000000E-01   1.11702851E-02   8.99891877E-03   5.96265972E-02   1.69000000E-02   1.44460626E-02   1.85000000E-02   1.04000000E-01   5.12000000E-04   7.12016210E-05   3.74910799E-15   8.01804998E-04   4.47795146E-23   1.27528068-230   1.98795610E-07   1.00000000E-01
   8.75000000E+00   5.00000000E-02   5.00000000E-01   1.11387195E-02   8.98664849E-03   5.96355701E-02   1.69000000E-02   1.44443774E-02   1.85000000E-02   1.04000000E-01   5.12000000E-04   6.89593529E-05   3.73475089E-15   7.69350001E-04   4.14586213E-23   1.54370444-233   1.98795559E-07   1.00000000E-01
   8.85000000E+00   5.00000000E-02   5.00000000E-01   1.11074761E-02   8.97440116E-03   5.96444422E-02   1.69000000E-02   1.44427117E-02   1.85000000E-02   1.04000000E-01   5.12000000E-04   6.67969615E-05   3.72046801E-15   7.37515279E-04   3.94051139E-23   1.84749301-236   1.98795507E-07   1.00000000E-01
   8.95000000E+00   5.00000000E-02   5.00000000E-01   1.10765760E-02   8.96219068E-03   5.96532125E-02   1.69000000E-02   1.44410662E-02   1.85000000E-02   1.04000000E-01   5.12000000E-04   6.47167171E-05   3.70627332E-15   7.06306930E-04   3.82092356E-23   2.20117830-239   1.98795454E-07   1.00000000E-01
   9.05000000E+00   5.00000000E-02   5.00000000E-01   1.10460388E-02   8.95002967E-03   5.96618808E-02   1.69000000E-02   1.44394413E-02   1.85000000E-02   1.04000000E-01   5.12000000E-04   6.27211374E-05   3.69217920E-15   6.75731147E-04   3.75249682E-23   2.62446389-242   1.98795399E-07   1.00000000E-01
   9.15000000E+00   5.00000000E-02   5.00000000E-01   1.10158824E-02   8.93792941E-03   5.96704468E-02   1.69000000E-02   1.44378376E-02   1.85000000E-02   1.04000000E-01   5.12000000E-04   6.08130137E-05   3.67819654E-15   6.45794345E-04   3.71092813E-23   3.14205916-245   1.98795343E-07   1.00000000E-01
   9.25000000E+00   5.00000000E-02   5.00000000E-01   1.09861232E-02   8.92590004E-03   5.96789106E-02   1.69000000E-02   1.44362553E-02   1.85000000E-02   1.04000000E-01   5.12000000E-04   5.89954628E-05   3.66433481E-15   6.16503485E-04   3.67917474E-23   3.78348604-248   1.98795284E-07   1.00000000E-01
   9.35000000E+00   5.00000000E-02   5.00000000E-01   1.09567764E-02   8.91395060E-03   5.96872727E-02   1.69000000E-02   1.44346948E-02   1.85000000E-02   1.04000000E-01   5.12000000E-04   5.72720062E-05   3.65060226E-15   5.87866603E-04   3.63650773E-23   4.58315772-251   1.98795222E-07   1.00000000E-01
   9.45000000E+00   5.00000000E-02   5.00000000E-01   1.09278571E-02   8.90208937E-03   5.96955331E-02   1.69000000E-02   1.44331567E-02   1.85000000E-02   1.04000000E-01   5.12000000E-04   5.56466282E-05   3.63700625E-15   5.59893569E-04   3.52825996E-23   5.58139372-254   1.98795158E-07   1.00000000E-01
   9.55000000E+00   5.00000000E-02   5.00000000E-01   1.08993822E-02   8.89032464E-03   5.97036916E-02   1.69000000E-02   1.44316413E-02   1.85000000E-02   1.04000000E-01   5.12000000E-04   5.41239159E-05   3.62355413E-15   5.32597910E-04   3.23239751E-23   6.83653529-257   1.98795090E-07   1.00000000E-01