 TITLE = "Mineral Rate (mol/m^3/sec)" 
VARIABLES = "X"          "Y"              "Z"            "Calcite"        "Gypsum"         "Ferrihydrite"   "Jarosite"       "Gibbsite"       "Siderite"       "TracerMineral" 
 ZONE I=          31 , J=          41 , K=           1  F=POINT
   2.50000000E-02   1.25000000E-02   5.00000000E-01   0.00000000E+00   0.00000000E+00  -9.45710494E-10   3.18665587E-10   1.01717870E-07  -5.93078012E-08   1.14303794E-34
   1.00000000E-01   1.25000000E-02   5.00000000E-01   0.00000000E+00   1.04605470E-08   7.21187244E-10   0.00000000E+00   1.36860495E-07  -1.89032678E-07   5.04613329E-35
   2.00000000E-01   1.25000000E-02   5.00000000E-01  -1.96695462E-06   1.79434787E-06   1.27176255E-10   0.00000000E+00   8.04352400E-10   1.09552044E-06   3.84135260E-35
   3.00000000E-01   1.25000000E-02   5.00000000E-01  -1.46321357E-06   1.32914068E-06   8.65249200E-11   0.00000000E+00   3.36178718E-10   7.25285991E-07   2.88430021E-35
   4.00000000E-01   1.25000000E-02   5.00000000E-01   0.00000000E+00   1.43423481E-08   3.29601103E-12   0.00000000E+00   1.07837110E-10   7.35637298E-08   2.19004042E-35
   5.00000000E-01   1.25000000E-02   5.00000000E-01  -1.25965116E-06   1.12457561E-06   6.66426987E-11   0.00000000E+00   1.80779402E-10   6.46761820E-07   1.60297646E-35
   6.00000000E-01   1.25000000E-02   5.00000000E-01  -1.79508609E-07   3.45721267E-07   2.22732724E-12   0.00000000E+00   6.78726724E-14   2.58072646E-08   5.42769724E-35
   7.00000000E-01   1.25000000E-02   5.00000000E-01  -1.03445396E-08   2.52657923E-08   1.31190568E-13   0.00000000E+00   1.36642675E-15   4.67863679E-10   8.03152223E-35
   8.00000000E-01   1.25000000E-02   5.00000000E-01  -3.24656197E-10   8.03659854E-10   4.15309530E-15   0.00000000E+00   3.87330736E-17   1.00875791E-11   9.03238650E-35
   9.00000000E-01   1.25000000E-02   5.00000000E-01  -1.02001475E-11   2.50225560E-11   1.30533332E-16   0.00000000E+00   1.20799822E-18   3.01286667E-13   9.24219101E-35
   1.00000000E+00   1.25000000E-02   5.00000000E-01  -4.06707491E-13   9.93350294E-13   5.19943037E-18   0.00000000E+00   4.74272365E-20   1.19476762E-14   9.34022860E-35
   1.10000000E+00   1.25000000E-02   5.00000000E-01  -1.71881522E-14   4.18333146E-14   2.11869677E-19   0.00000000E+00   1.76558064E-21   5.03720157E-16   9.38817138E-35
   1.20000000E+00   1.25000000E-02   5.00000000E-01  -6.58667516E-16   1.54584915E-15   1.77063072E-20   0.00000000E+00   1.77063072E-21   1.84676784E-17   9.41502431E-35
   1.30000000E+00   1.25000000E-02   5.00000000E-01  -1.56213925E-17  -1.53422466E-17  -3.55987070E-22   0.00000000E+00   1.77363411E-21  -3.73057937E-19   9.43099432E-35
   1.40000000E+00   1.25000000E-02   5.00000000E-01  -3.37411414E-18  -3.49047903E-17  -4.92669295E-22   0.00000000E+00  -3.55271913E-21  -6.92793744E-19   9.44016565E-35
   1.50000000E+00   1.25000000E-02   5.00000000E-01  -5.86118945E-18  -2.38616409E-17  -4.25092933E-22   0.00000000E+00  -1.77635956E-21  -5.86201059E-19   9.44366244E-35
   1.60000000E+00   1.25000000E-02   5.00000000E-01  -7.99297875E-18  -1.50166310E-17  -3.66021543E-22   0.00000000E+00   0.00000000E+00  -4.79616360E-19   9.44493507E-35
   1.70000000E+00   1.25000000E-02   5.00000000E-01  -8.70364505E-18  -9.85646832E-18  -3.43916807E-22   0.00000000E+00   0.00000000E+00  -4.26324814E-19   9.44538312E-35
   1.80000000E+00   1.25000000E-02   5.00000000E-01  -9.23660199E-18  -6.87798431E-18  -3.14602154E-22   0.00000000E+00   0.00000000E+00  -3.90797471E-19   9.44555019E-35
   1.90000000E+00   1.25000000E-02   5.00000000E-01  -8.70376217E-18  -5.65877147E-18  -3.07278779E-22   0.00000000E+00  -1.77635956E-21  -3.73033904E-19   9.44559108E-35
   2.00000000E+00   1.25000000E-02   5.00000000E-01  -8.17089610E-18  -5.16739738E-18  -2.99961138E-22   0.00000000E+00   0.00000000E+00  -3.73033880E-19   9.44560874E-35
   2.10000000E+00   1.25000000E-02   5.00000000E-01  -7.81564251E-18  -5.09047668E-18  -3.07277477E-22   0.00000000E+00   3.55276931E-21  -3.73033861E-19   9.44561984E-35
   2.20000000E+00   1.25000000E-02   5.00000000E-01  -7.63800592E-18  -5.08481620E-18  -3.14592917E-22   0.00000000E+00   0.00000000E+00  -3.55270317E-19   9.44563505E-35
   2.30000000E+00   1.25000000E-02   5.00000000E-01  -7.63801441E-18  -5.13208308E-18  -3.21915453E-22   0.00000000E+00   1.77638736E-21  -3.90797375E-19   9.44563423E-35
   2.40000000E+00   1.25000000E-02   5.00000000E-01  -7.28278423E-18  -5.18402380E-18  -3.36564364E-22   0.00000000E+00  -1.77635956E-21  -3.90797464E-19   9.44561756E-35
   2.50000000E+00   1.25000000E-02   5.00000000E-01  -7.28279851E-18  -5.13300061E-18  -3.51204360E-22   0.00000000E+00   1.77638329E-21  -4.08561003E-19   9.44561258E-35
   2.60000000E+00   1.25000000E-02   5.00000000E-01  -7.28280219E-18  -4.87158221E-18  -3.65839521E-22   0.00000000E+00   0.00000000E+00  -4.26324513E-19   9.44562025E-35
   2.70000000E+00   1.25000000E-02   5.00000000E-01  -7.46042612E-18  -3.65301307E-18  -3.80467646E-22   0.00000000E+00   0.00000000E+00  -4.26324463E-19   9.44565047E-35
   2.80000000E+00   1.25000000E-02   5.00000000E-01  -7.63805057E-18  -3.50814160E-18  -3.87785514E-22   0.00000000E+00   0.00000000E+00  -4.44087968E-19   9.44565839E-35
   2.90000000E+00   1.25000000E-02   5.00000000E-01  -7.28280489E-18  -3.39440154E-18  -4.02433295E-22   0.00000000E+00   0.00000000E+00  -4.61851547E-19   9.44565076E-35
   2.97500000E+00   1.25000000E-02   5.00000000E-01  -6.74993563E-18  -3.26814682E-18  -3.95134010E-22   0.00000000E+00   0.00000000E+00  -4.44088112E-19   9.44563570E-35
   2.50000000E-02   5.00000000E-02   5.00000000E-01   0.00000000E+00  -7.45466570E-07   7.58512863E-09   1.93829650E-10   3.47883220E-07  -5.02832359E-07   7.99090961E-35
   1.00000000E-01   5.00000000E-02   5.00000000E-01   0.00000000E+00  -2.22957982E-07   2.84317260E-09   0.00000000E+00   6.40566847E-07  -1.09366142E-06   4.55001788E-35
   2.00000000E-01   5.00000000E-02   5.00000000E-01   0.00000000E+00   6.60184243E-08   1.52062987E-09   0.00000000E+00   2.93770801E-07  -1.90860288E-07   4.27168666E-35
   3.00000000E-01   5.00000000E-02   5.00000000E-01   0.00000000E+00   5.18142630E-08   8.13726961E-10   0.00000000E+00   1.29173366E-07   1.53625634E-08   3.91442823E-35
   4.00000000E-01   5.00000000E-02   5.00000000E-01   0.00000000E+00  -7.61959041E-10   7.47343668E-11   0.00000000E+00   3.69595111E-09  -4.34517822E-08   4.03221558E-35
   5.00000000E-01   5.00000000E-02   5.00000000E-01   0.00000000E+00   4.15198179E-08   1.08527814E-11   0.00000000E+00   2.75381974E-10   1.93718875E-07   2.66329793E-35
   6.00000000E-01   5.00000000E-02   5.00000000E-01  -1.31109750E-06   1.13235879E-06   6.87297195E-11   0.00000000E+00   1.65509483E-10   6.46745816E-07   1.59446944E-35
   7.00000000E-01   5.00000000E-02   5.00000000E-01  -2.54903750E-08   4.88609279E-08   3.13275675E-13   0.00000000E+00   8.08059462E-15   3.35407659E-09   6.83533476E-35
   8.00000000E-01   5.00000000E-02   5.00000000E-01  -7.58720067E-10   1.79969931E-09   9.58695396E-15   0.00000000E+00   8.90186562E-17   3.14219550E-11   8.43445304E-35
   9.00000000E-01   5.00000000E-02   5.00000000E-01  -2.65856646E-11   6.50584913E-11   3.39758426E-16   0.00000000E+00   3.13539726E-18   8.15380876E-13   9.01185715E-35
   1.00000000E+00   5.00000000E-02   5.00000000E-01  -7.36231267E-13   1.80168375E-12   9.40128496E-18   0.00000000E+00   8.56250861E-20   2.17225776E-14   9.29176872E-35
   1.10000000E+00   5.00000000E-02   5.00000000E-01  -1.75073912E-14   4.26443762E-14   2.29731633E-19   0.00000000E+00   3.53433282E-21   5.13273483E-16   9.39660341E-35
   1.20000000E+00   5.00000000E-02   5.00000000E-01  -4.62324263E-16   1.06801983E-15   0.00000000E+00   0.00000000E+00  -1.77635956E-21   1.26921527E-17   9.42574566E-35
   1.30000000E+00   5.00000000E-02   5.00000000E-01  -1.15412965E-17  -2.14462672E-17  -4.13186428E-22   0.00000000E+00   1.77467974E-21  -4.79634167E-19   9.43655426E-35
   1.40000000E+00   5.00000000E-02   5.00000000E-01  -4.43985617E-18  -3.17803100E-17  -4.70140049E-22   0.00000000E+00   0.00000000E+00  -6.57262790E-19   9.44125102E-35
   1.50000000E+00   5.00000000E-02   5.00000000E-01  -5.32830708E-18  -2.60372357E-17  -4.32584008E-22   0.00000000E+00   0.00000000E+00  -6.21729503E-19   9.44329246E-35
   1.60000000E+00   5.00000000E-02   5.00000000E-01  -6.57190234E-18  -1.94516958E-17  -3.95477844E-22   0.00000000E+00  -1.77635956E-21  -5.15144568E-19   9.44447214E-35
   1.70000000E+00   5.00000000E-02   5.00000000E-01  -7.81544440E-18  -1.29617316E-17  -3.58612914E-22   0.00000000E+00   0.00000000E+00  -4.44088704E-19   9.44518870E-35
   1.80000000E+00   5.00000000E-02   5.00000000E-01  -8.70367679E-18  -8.45846709E-18  -3.29246156E-22   0.00000000E+00  -1.77635956E-21  -4.08561061E-19   9.44549285E-35
   1.90000000E+00   5.00000000E-02   5.00000000E-01  -8.17085603E-18  -7.71402247E-18  -3.14613300E-22   0.00000000E+00  -1.77635956E-21  -4.08561074E-19   9.44551477E-35
   2.00000000E+00   5.00000000E-02   5.00000000E-01  -7.81560930E-18  -6.44337272E-18  -3.07275831E-22   0.00000000E+00   1.77637821E-21  -3.73033893E-19   9.44558558E-35
   2.10000000E+00   5.00000000E-02   5.00000000E-01  -7.99323558E-18  -5.88652882E-18  -3.07264194E-22   0.00000000E+00   0.00000000E+00  -3.73033812E-19   9.44562162E-35
   2.20000000E+00   5.00000000E-02   5.00000000E-01  -7.63801031E-18  -5.67214471E-18  -3.21909825E-22   0.00000000E+00   1.77638380E-21  -3.73033892E-19   9.44561528E-35
   2.30000000E+00   5.00000000E-02   5.00000000E-01  -7.46038166E-18  -5.53924034E-18  -3.29221559E-22   0.00000000E+00   0.00000000E+00  -3.90797358E-19   9.44562806E-35
   2.40000000E+00   5.00000000E-02   5.00000000E-01  -7.28274475E-18  -5.38375586E-18  -3.36535853E-22   0.00000000E+00   0.00000000E+00  -4.08560837E-19   9.44564653E-35
   2.50000000E+00   5.00000000E-02   5.00000000E-01  -7.28275877E-18  -5.03467964E-18  -3.51181351E-22   0.00000000E+00   0.00000000E+00  -3.90797366E-19   9.44564878E-35
   2.60000000E+00   5.00000000E-02   5.00000000E-01  -7.46040620E-18  -4.21582439E-18  -3.65825863E-22   0.00000000E+00  -3.55271912E-21  -4.08560916E-19   9.44565418E-35
   2.70000000E+00   5.00000000E-02   5.00000000E-01  -7.81568163E-18  -3.45583667E-18  -3.80470243E-22   0.00000000E+00   1.77639149E-21  -4.26324469E-19   9.44565619E-35
   2.80000000E+00   5.00000000E-02   5.00000000E-01  -7.63804560E-18  -3.07420698E-18  -3.95104515E-22   0.00000000E+00   0.00000000E+00  -4.44087958E-19   9.44566887E-35
   2.90000000E+00   5.00000000E-02   5.00000000E-01  -7.46043763E-18  -2.14578074E-18  -4.02435916E-22   0.00000000E+00   0.00000000E+00  -4.44088017E-19   9.44566415E-35
   2.97500000E+00   5.00000000E-02   5.00000000E-01  -7.28282906E-18  -1.93362447E-18  -4.02451050E-22   0.00000000E+00  -1.77635956E-21  -4.44088094E-19   9.44564917E-35
   2.50000000E-02   1.00000000E-01   5.00000000E-01   0.00000000E+00   0.00000000E+00   8.22487593E-08   1.47563067E-08  -2.75975795E-07  -2.45514622E-08   1.25396534E-34
   1.00000000E-01   1.00000000E-01   5.00000000E-01   0.00000000E+00   0.00000000E+00   2.90292248E-09  -2.06556074E-12   8.22824859E-08  -2.90458100E-08   1.11726755E-34
   2.00000000E-01   1.00000000E-01   5.00000000E-01   0.00000000E+00  -5.35508423E-07   4.23096002E-10   0.00000000E+00   1.31293306E-07  -6.75220739E-08   9.99815671E-35
   3.00000000E-01   1.00000000E-01   5.00000000E-01   0.00000000E+00  -1.23632503E-07   1.16908238E-09   0.00000000E+00   2.68021363E-07  -2.89641642E-07   1.00858142E-34
   4.00000000E-01   1.00000000E-01   5.00000000E-01   0.00000000E+00  -4.89296863E-09   1.80232616E-09   0.00000000E+00   2.82422442E-07  -5.77793653E-07   5.44856821E-35
   5.00000000E-01   1.00000000E-01   5.00000000E-01   0.00000000E+00  -2.23283788E-09   1.41398940E-10   0.00000000E+00   6.95249626E-09  -8.48692184E-08   3.77065305E-35
   6.00000000E-01   1.00000000E-01   5.00000000E-01   0.00000000E+00   4.05713963E-08   1.01629558E-11   0.00000000E+00   2.09060252E-10   2.04519164E-07   1.52599977E-35
   7.00000000E-01   1.00000000E-01   5.00000000E-01  -3.38095529E-07   3.01630657E-07   1.60485636E-11   0.00000000E+00   2.53136423E-11   1.38061275E-07   6.42357385E-35
   8.00000000E-01   1.00000000E-01   5.00000000E-01  -5.63620413E-09   1.07412325E-08   6.68309248E-14   0.00000000E+00   7.46010632E-16   5.70715855E-10   8.04482202E-35
   9.00000000E-01   1.00000000E-01   5.00000000E-01  -1.28294037E-10   3.00410086E-10   1.62278203E-15   0.00000000E+00   1.48243466E-17   4.92742794E-12   8.85783979E-35
   1.00000000E+00   1.00000000E-01   5.00000000E-01  -2.37648509E-12   5.77634707E-12   3.03553455E-17   0.00000000E+00   2.81035689E-19   7.21584267E-14   9.28173252E-35
   1.10000000E+00   1.00000000E-01   5.00000000E-01  -3.64148187E-14   8.86598227E-14   4.60195363E-19   0.00000000E+00   3.53996433E-21   1.07170650E-15   9.41157572E-35
   1.20000000E+00   1.00000000E-01   5.00000000E-01  -6.60960342E-16   1.54934294E-15   0.00000000E+00   0.00000000E+00   0.00000000E+00   1.85041187E-17   9.43360193E-35
   1.30000000E+00   1.00000000E-01   5.00000000E-01  -1.49176250E-17  -1.40238828E-17  -3.89462684E-22   0.00000000E+00  -3.55271913E-21  -4.08569387E-19   9.44089939E-35
   1.40000000E+00   1.00000000E-01   5.00000000E-01  -5.86084813E-18  -2.81864609E-17  -4.76993830E-22   0.00000000E+00   1.77576728E-21  -6.39495809E-19   9.44233707E-35
   1.50000000E+00   1.00000000E-01   5.00000000E-01  -6.39409938E-18  -2.28719662E-17  -4.39687035E-22   0.00000000E+00   0.00000000E+00  -5.86200661E-19   9.44383865E-35
   1.60000000E+00   1.00000000E-01   5.00000000E-01  -7.46007417E-18  -1.75553461E-17  -3.95418821E-22   0.00000000E+00   0.00000000E+00  -5.15144217E-19   9.44465321E-35
   1.70000000E+00   1.00000000E-01   5.00000000E-01  -7.63779842E-18  -1.46867189E-17  -3.58677187E-22   0.00000000E+00   1.77627184E-21  -4.79616210E-19   9.44501999E-35
   1.80000000E+00   1.00000000E-01   5.00000000E-01  -7.63789703E-18  -1.24822407E-17  -3.51296008E-22   0.00000000E+00   1.77631029E-21  -4.44088739E-19   9.44522441E-35
   1.90000000E+00   1.00000000E-01   5.00000000E-01  -7.63794749E-18  -1.01627560E-17  -3.29280297E-22   0.00000000E+00   1.77634362E-21  -4.08561273E-19   9.44540166E-35
   2.00000000E+00   1.00000000E-01   5.00000000E-01  -8.17082200E-18  -6.57400565E-18  -3.14577854E-22   0.00000000E+00   7.10553671E-21  -3.90797311E-19   9.44561731E-35
   2.10000000E+00   1.00000000E-01   5.00000000E-01  -8.34848525E-18  -5.14444622E-18  -3.29212872E-22   0.00000000E+00   0.00000000E+00  -3.90797299E-19   9.44565453E-35
   2.20000000E+00   1.00000000E-01   5.00000000E-01  -7.99326659E-18  -5.17101120E-18  -3.29225006E-22   0.00000000E+00   0.00000000E+00  -3.90797371E-19   9.44563474E-35
   2.30000000E+00   1.00000000E-01   5.00000000E-01  -7.81566105E-18  -5.17282397E-18  -3.36552911E-22   0.00000000E+00  -1.77635956E-21  -4.08560941E-19   9.44562398E-35
   2.40000000E+00   1.00000000E-01   5.00000000E-01  -7.99324065E-18  -4.49243084E-18  -3.51154973E-22   0.00000000E+00  -1.77635956E-21  -4.08560737E-19   9.44568263E-35
   2.50000000E+00   1.00000000E-01   5.00000000E-01  -7.99327188E-18  -3.54168887E-18  -3.58495676E-22   0.00000000E+00   0.00000000E+00  -4.08560862E-19   9.44568072E-35
   2.60000000E+00   1.00000000E-01   5.00000000E-01  -7.99331826E-18  -3.30340209E-18  -3.65840008E-22   0.00000000E+00   1.77639072E-21  -4.26324514E-19   9.44565207E-35
   2.70000000E+00   1.00000000E-01   5.00000000E-01  -7.99331976E-18  -3.40721649E-18  -3.87789175E-22   0.00000000E+00   1.77639061E-21  -4.44087998E-19   9.44565149E-35
   2.80000000E+00   1.00000000E-01   5.00000000E-01  -7.99330681E-18  -2.84975947E-18  -3.95103922E-22   0.00000000E+00   0.00000000E+00  -4.44087954E-19   9.44567031E-35
   2.90000000E+00   1.00000000E-01   5.00000000E-01  -7.63808571E-18  -2.18854298E-18  -4.09762404E-22   0.00000000E+00   1.77639025E-21  -4.44088069E-19   9.44564960E-35
   2.97500000E+00   1.00000000E-01   5.00000000E-01  -7.46047782E-18  -1.76816225E-18  -4.09778202E-22   0.00000000E+00   1.77638772E-21  -4.44088146E-19   9.44563615E-35
   2.50000000E-02   1.50000000E-01   5.00000000E-01   0.00000000E+00   0.00000000E+00   5.56898188E-08   2.42215280E-08  -3.48147268E-07  -2.44491019E-08   1.28510151E-34
   1.00000000E-01   1.50000000E-01   5.00000000E-01   0.00000000E+00   0.00000000E+00   2.12071555E-08  -1.67677254E-12  -1.34371757E-08  -2.49435390E-08   1.19678932E-34
   2.00000000E-01   1.50000000E-01   5.00000000E-01   0.00000000E+00   0.00000000E+00  -6.71301924E-10   0.00000000E+00   2.66182891E-08  -2.61685244E-08   1.14729432E-34
   3.00000000E-01   1.50000000E-01   5.00000000E-01   0.00000000E+00   0.00000000E+00  -7.62583828E-10   0.00000000E+00   8.01097840E-08  -6.46632237E-08   1.15378419E-34
   4.00000000E-01   1.50000000E-01   5.00000000E-01   0.00000000E+00  -1.36625336E-07   2.14708400E-09   0.00000000E+00   4.40658447E-07  -5.84085735E-07   9.02027487E-35
   5.00000000E-01   1.50000000E-01   5.00000000E-01   0.00000000E+00   4.94663762E-09   4.46095819E-10   0.00000000E+00   4.81558097E-08  -1.29023443E-07   3.62136272E-35
   6.00000000E-01   1.50000000E-01   5.00000000E-01  -1.35564776E-06   1.23719788E-06   7.64492751E-11   0.00000000E+00   3.92314166E-10   7.84036145E-07   1.80537880E-35
   7.00000000E-01   1.50000000E-01   5.00000000E-01  -3.81656465E-08   6.72784823E-08   4.82714097E-13   0.00000000E+00   1.44746556E-14   4.37584507E-09   8.01573480E-35
   8.00000000E-01   1.50000000E-01   5.00000000E-01  -9.01894926E-10   2.09580717E-09   1.14071587E-14   0.00000000E+00   1.05177688E-16   3.48475950E-11   8.99442588E-35
   9.00000000E-01   1.50000000E-01   5.00000000E-01  -2.91337222E-11   7.06407871E-11   3.72161134E-16   0.00000000E+00   3.42453111E-18   8.82585407E-13   9.17347873E-35
   1.00000000E+00   1.50000000E-01   5.00000000E-01  -1.16372754E-12   2.83712144E-12   1.48844770E-17   0.00000000E+00   1.38338080E-19   3.42848167E-14   9.31125247E-35
   1.10000000E+00   1.50000000E-01   5.00000000E-01  -5.29139645E-14   1.28884246E-13   6.69482792E-19   0.00000000E+00   5.28539046E-21   1.55307675E-15   9.36805155E-35
   1.20000000E+00   1.50000000E-01   5.00000000E-01  -1.76008314E-15   4.22488791E-15   1.76973481E-20   0.00000000E+00   0.00000000E+00   5.07382970E-17   9.41026044E-35
   1.30000000E+00   1.50000000E-01   5.00000000E-01  -5.18301740E-17   6.79206501E-17   7.09354048E-20   0.00000000E+00  -1.77635957E-21   6.56152495E-19   9.42967034E-35
   1.40000000E+00   1.50000000E-01   5.00000000E-01  -2.30815632E-18  -4.31300139E-17  -5.46528200E-22   0.00000000E+00  -1.77635956E-21  -7.99394123E-19   9.43559302E-35
   1.50000000E+00   1.50000000E-01   5.00000000E-01  -1.42067492E-18  -4.11837802E-17  -5.22172063E-22   0.00000000E+00   1.77533101E-21  -7.46086187E-19   9.44001729E-35
   1.60000000E+00   1.50000000E-01   5.00000000E-01  -3.01926652E-18  -3.27179212E-17  -4.69491139E-22   0.00000000E+00   3.55166765E-21  -6.57258494E-19   9.44269091E-35
   1.70000000E+00   1.50000000E-01   5.00000000E-01  -4.79560059E-18  -2.53182662E-17  -4.24950484E-22   0.00000000E+00   0.00000000E+00  -5.86200149E-19   9.44403481E-35
   1.80000000E+00   1.50000000E-01   5.00000000E-01  -6.39436082E-18  -1.75959317E-17  -3.87966829E-22   0.00000000E+00  -3.55271913E-21  -4.97379807E-19   9.44496077E-35
   1.90000000E+00   1.50000000E-01   5.00000000E-01  -7.28262484E-18  -1.21257524E-17  -3.58560639E-22   0.00000000E+00   1.77633616E-21  -4.44088399E-19   9.44536200E-35
   2.00000000E+00   1.50000000E-01   5.00000000E-01  -8.17080434E-18  -7.83343131E-18  -3.36534894E-22   0.00000000E+00   0.00000000E+00  -4.08560882E-19   9.44559112E-35
   2.10000000E+00   1.50000000E-01   5.00000000E-01  -8.52610846E-18  -5.73095873E-18  -3.43845823E-22   0.00000000E+00   1.77638968E-21  -4.08560818E-19   9.44564654E-35
   2.20000000E+00   1.50000000E-01   5.00000000E-01  -8.34852404E-18  -4.83658438E-18  -3.51179439E-22   0.00000000E+00   0.00000000E+00  -4.08560892E-19   9.44564805E-35
   2.30000000E+00   1.50000000E-01   5.00000000E-01  -8.34855352E-18  -4.41103743E-18  -3.58507066E-22   0.00000000E+00   0.00000000E+00  -4.08560935E-19   9.44564177E-35
   2.40000000E+00   1.50000000E-01   5.00000000E-01  -8.70381097E-18  -3.19201185E-18  -3.58506927E-22   0.00000000E+00   1.77639382E-21  -4.08560896E-19   9.44566861E-35
   2.50000000E+00   1.50000000E-01   5.00000000E-01  -8.70382998E-18  -3.16170524E-18  -3.65836862E-22   0.00000000E+00   3.55278377E-21  -4.26324465E-19   9.44565829E-35
   2.60000000E+00   1.50000000E-01   5.00000000E-01  -8.34858037E-18  -3.20628321E-18  -3.87792137E-22   0.00000000E+00  -1.77635956E-21  -4.26324486E-19   9.44565312E-35
   2.70000000E+00   1.50000000E-01   5.00000000E-01  -8.17097659E-18  -3.22758271E-18  -4.09762507E-22   0.00000000E+00  -3.55271912E-21  -4.61851629E-19   9.44563543E-35
   2.80000000E+00   1.50000000E-01   5.00000000E-01  -7.99335595E-18  -3.14683859E-18  -4.24399840E-22   0.00000000E+00   0.00000000E+00  -4.44088107E-19   9.44563077E-35
   2.90000000E+00   1.50000000E-01   5.00000000E-01  -7.99335460E-18  -2.88117692E-18  -4.24396980E-22   0.00000000E+00  -1.77635956E-21  -4.79615127E-19   9.44563580E-35
   2.97500000E+00   1.50000000E-01   5.00000000E-01  -7.63809437E-18  -2.30420871E-18  -4.17080825E-22   0.00000000E+00   1.77638889E-21  -4.61851598E-19   9.44564239E-35
   2.50000000E-02   2.00000000E-01   5.00000000E-01   0.00000000E+00   0.00000000E+00   2.75066246E-08   2.21877324E-09  -4.91900749E-08  -2.93929845E-08   1.15619037E-34
   1.00000000E-01   2.00000000E-01   5.00000000E-01   0.00000000E+00  -7.07772851E-07   2.12650810E-09   0.00000000E+00   2.30000682E-07  -2.79176406E-07   7.32632828E-35
   2.00000000E-01   2.00000000E-01   5.00000000E-01   0.00000000E+00  -2.43734466E-07   3.73887068E-10   0.00000000E+00   1.44845066E-07  -1.33053871E-07   8.32550689E-35
   3.00000000E-01   2.00000000E-01   5.00000000E-01   0.00000000E+00  -8.25357529E-08   2.10362002E-09   0.00000000E+00   4.11646811E-07  -6.13326878E-07   7.08382712E-35
   4.00000000E-01   2.00000000E-01   5.00000000E-01   0.00000000E+00  -6.25756988E-09   7.16932240E-10   0.00000000E+00   7.85929460E-08  -2.76576448E-07   4.69047340E-35
   5.00000000E-01   2.00000000E-01   5.00000000E-01   0.00000000E+00   3.49703752E-08   2.37239435E-11   0.00000000E+00   8.93609908E-10   1.47925244E-07   2.59369139E-35
   6.00000000E-01   2.00000000E-01   5.00000000E-01  -3.77558706E-06   3.24525856E-06   2.10535361E-10   0.00000000E+00   8.09580667E-10   2.30134381E-06   3.12414901E-35
   7.00000000E-01   2.00000000E-01   5.00000000E-01  -1.03234629E-07   1.94861384E-07   1.29181424E-12   0.00000000E+00   5.37828220E-14   1.85584279E-08   7.89587211E-35
   8.00000000E-01   2.00000000E-01   5.00000000E-01  -3.31062298E-09   7.72698625E-09   4.16361258E-14   0.00000000E+00   4.02910245E-16   1.57286320E-10   8.96071328E-35
   9.00000000E-01   2.00000000E-01   5.00000000E-01  -1.03110633E-10   2.49984743E-10   1.31612641E-15   0.00000000E+00   1.21322514E-17   3.22307478E-12   9.25820348E-35
   1.00000000E+00   2.00000000E-01   5.00000000E-01  -3.38086424E-12   8.23527106E-12   4.32247805E-17   0.00000000E+00   3.97914476E-19   9.99274173E-14   9.36213180E-35
   1.10000000E+00   2.00000000E-01   5.00000000E-01  -9.43315986E-14   2.29655201E-13   1.22018044E-18   0.00000000E+00   8.84188727E-21   2.77021633E-15   9.40304294E-35
   1.20000000E+00   2.00000000E-01   5.00000000E-01  -3.19732509E-15   7.71776491E-15   3.54460860E-20   0.00000000E+00   0.00000000E+00   9.28687452E-17   9.42392325E-35
   1.30000000E+00   2.00000000E-01   5.00000000E-01  -7.79463068E-17   1.28838590E-16   1.77463623E-20   0.00000000E+00  -3.55271913E-21   1.38421626E-18   9.43632291E-35
   1.40000000E+00   2.00000000E-01   5.00000000E-01  -6.21603653E-18  -3.03370271E-17  -5.20976898E-22   0.00000000E+00  -1.77635956E-21  -6.92786829E-19   9.44241913E-35
   1.50000000E+00   2.00000000E-01   5.00000000E-01  -7.63753856E-18  -2.17193060E-17  -4.76045640E-22   0.00000000E+00  -1.77635956E-21  -6.21726231E-19   9.44444838E-35
   1.60000000E+00   2.00000000E-01   5.00000000E-01  -9.23640933E-18  -1.39651912E-17  -4.24480017E-22   0.00000000E+00   0.00000000E+00  -5.15142881E-19   9.44520175E-35
   1.70000000E+00   2.00000000E-01   5.00000000E-01  -9.23642586E-18  -1.17091283E-17  -3.95124053E-22   0.00000000E+00   1.77634387E-21  -4.97378825E-19   9.44540298E-35
   1.80000000E+00   2.00000000E-01   5.00000000E-01  -8.88124554E-18  -1.05888747E-17  -3.65841363E-22   0.00000000E+00   0.00000000E+00  -4.79615228E-19   9.44546221E-35
   1.90000000E+00   2.00000000E-01   5.00000000E-01  -8.88131005E-18  -8.34517263E-18  -3.65810893E-22   0.00000000E+00   0.00000000E+00  -4.44087984E-19   9.44556297E-35
   2.00000000E+00   2.00000000E-01   5.00000000E-01  -8.88136248E-18  -7.03459037E-18  -3.65807391E-22   0.00000000E+00   0.00000000E+00  -4.26324444E-19   9.44560014E-35
   2.10000000E+00   2.00000000E-01   5.00000000E-01  -8.70377961E-18  -6.38469440E-18  -3.73131121E-22   0.00000000E+00   1.77638180E-21  -4.26324479E-19   9.44560468E-35
   2.20000000E+00   2.00000000E-01   5.00000000E-01  -8.88132216E-18  -5.44685415E-18  -3.73081657E-22   0.00000000E+00   0.00000000E+00  -4.26324141E-19   9.44569755E-35
   2.30000000E+00   2.00000000E-01   5.00000000E-01  -8.88134650E-18  -4.38755888E-18  -3.73095767E-22   0.00000000E+00   0.00000000E+00  -4.08560683E-19   9.44570972E-35
   2.40000000E+00   2.00000000E-01   5.00000000E-01  -9.05908166E-18  -3.94923350E-18  -3.87793864E-22   0.00000000E+00   1.77639019E-21  -4.44088095E-19   9.44564930E-35
   2.50000000E+00   2.00000000E-01   5.00000000E-01  -8.88146079E-18  -3.50797613E-18  -4.02415094E-22   0.00000000E+00  -3.55271912E-21  -4.44087993E-19   9.44565400E-35
   2.60000000E+00   2.00000000E-01   5.00000000E-01  -8.70382192E-18  -3.46442010E-18  -4.17043558E-22   0.00000000E+00   1.77639288E-21  -4.61851461E-19   9.44566358E-35
   2.70000000E+00   2.00000000E-01   5.00000000E-01  -8.70382590E-18  -3.12391214E-18  -4.17052047E-22   0.00000000E+00   1.77639349E-21  -4.79615002E-19   9.44566683E-35
   2.80000000E+00   2.00000000E-01   5.00000000E-01  -8.70383194E-18  -1.99763883E-18  -4.31690933E-22   0.00000000E+00   0.00000000E+00  -4.79615003E-19   9.44567570E-35
   2.90000000E+00   2.00000000E-01   5.00000000E-01  -8.52623156E-18  -1.21695823E-18  -4.39024720E-22   0.00000000E+00  -1.77635956E-21  -4.61851559E-19   9.44566202E-35
   2.97500000E+00   2.00000000E-01   5.00000000E-01  -8.34861768E-18  -8.41833971E-19  -4.39035815E-22   0.00000000E+00   1.77639089E-21  -4.79615130E-19   9.44565301E-35
   2.50000000E-02   2.50000000E-01   5.00000000E-01   0.00000000E+00   0.00000000E+00   2.19345479E-08   3.87780136E-09  -1.54393807E-08  -2.61851762E-08   1.16528903E-34
   1.00000000E-01   2.50000000E-01   5.00000000E-01   0.00000000E+00  -1.67201592E-07   3.92487320E-09   0.00000000E+00   9.62986741E-07  -1.65870037E-06   5.66031780E-35
   2.00000000E-01   2.50000000E-01   5.00000000E-01   0.00000000E+00  -4.82930672E-09   2.10769143E-09   0.00000000E+00   3.89550781E-07  -7.68542891E-07   4.37682620E-35
   3.00000000E-01   2.50000000E-01   5.00000000E-01   0.00000000E+00  -4.53522610E-09   5.61578671E-10   0.00000000E+00   6.88057821E-08  -2.22549822E-07   3.59914944E-35
   4.00000000E-01   2.50000000E-01   5.00000000E-01   0.00000000E+00   5.70469715E-09   1.26217332E-11   0.00000000E+00   8.61541402E-10   2.02267826E-08   2.66363753E-35
   5.00000000E-01   2.50000000E-01   5.00000000E-01  -1.07434327E-06   9.84834175E-07   5.81094706E-11   0.00000000E+00   2.60145776E-10   6.63112327E-07   1.42953033E-35
   6.00000000E-01   2.50000000E-01   5.00000000E-01  -6.10918299E-07   1.11367298E-06   7.62372835E-12   0.00000000E+00   3.52593421E-13   1.21075815E-07   5.57336503E-35
   7.00000000E-01   2.50000000E-01   5.00000000E-01  -6.47598595E-08   1.56043515E-07   8.23738311E-13   0.00000000E+00   1.10128967E-14   3.60223475E-09   8.05492750E-35
   8.00000000E-01   2.50000000E-01   5.00000000E-01  -3.21135385E-09   7.93256866E-09   4.10701620E-14   0.00000000E+00   3.96224936E-16   1.03764785E-10   8.96994209E-35
   9.00000000E-01   2.50000000E-01   5.00000000E-01  -9.88209598E-11   2.42466635E-10   1.26415350E-15   0.00000000E+00   1.16924015E-17   2.93138396E-12   9.29610279E-35
   1.00000000E+00   2.50000000E-01   5.00000000E-01  -2.53530631E-12   6.18728979E-12   3.24119863E-17   0.00000000E+00   2.98670976E-19   7.44893189E-14   9.39722804E-35
   1.10000000E+00   2.50000000E-01   5.00000000E-01  -5.89396662E-14   1.43443917E-13   7.44761119E-19   0.00000000E+00   3.54648152E-21   1.72901614E-15   9.42890273E-35
   1.20000000E+00   2.50000000E-01   5.00000000E-01  -1.29688182E-15   3.08778189E-15   1.77530149E-20   0.00000000E+00  -1.77635956E-21   3.70327891E-17   9.43986032E-35
   1.30000000E+00   2.50000000E-01   5.00000000E-01  -2.43320635E-17  -3.24106732E-18  -3.81398445E-22   0.00000000E+00  -1.77635956E-21  -2.66455950E-19   9.44289211E-35
   1.40000000E+00   2.50000000E-01   5.00000000E-01  -9.41374040E-18  -2.11144641E-17  -5.27365079E-22   0.00000000E+00  -1.77635956E-21  -6.92781004E-19   9.44435175E-35
   1.50000000E+00   2.50000000E-01   5.00000000E-01  -9.94688927E-18  -1.69699880E-17  -4.90445195E-22   0.00000000E+00   0.00000000E+00  -6.21724778E-19   9.44500065E-35
   1.60000000E+00   2.50000000E-01   5.00000000E-01  -1.03022934E-17  -1.25683017E-17  -4.46393309E-22   0.00000000E+00  -1.77635956E-21  -5.50669756E-19   9.44531987E-35
   1.70000000E+00   2.50000000E-01   5.00000000E-01  -1.04800006E-17  -9.75265917E-18  -4.31705851E-22   0.00000000E+00  -1.77635956E-21  -5.15142381E-19   9.44546067E-35