 TITLE = "Mineral Rate (mol/m^3/sec)" 
VARIABLES = "X"          "Y"              "Z"            "Calcite"        "Gypsum"         "Ferrihydrite"   "Jarosite"       "Gibbsite"       "Siderite"       "TracerMineral" 
 ZONE I=          31 , J=          41 , K=           1  F=POINT
   2.50000000E-02   1.25000000E-02   5.00000000E-01   0.00000000E+00   0.00000000E+00   2.59272814E-10   1.00255297E-10   4.88115561E-08   0.00000000E+00   1.14424969E-34
   1.00000000E-01   1.25000000E-02   5.00000000E-01   0.00000000E+00  -2.20129146E-09   6.07621389E-10   0.00000000E+00   9.82087481E-08  -2.00846743E-07   5.08330028E-35
   2.00000000E-01   1.25000000E-02   5.00000000E-01   0.00000000E+00  -1.62757762E-10   5.57407330E-12   0.00000000E+00   6.58008024E-10  -5.03400710E-09   3.73082388E-35
   3.00000000E-01   1.25000000E-02   5.00000000E-01   0.00000000E+00  -4.85050184E-11   2.00166413E-12   0.00000000E+00   1.46341048E-10  -1.69360129E-09   2.73903870E-35
   4.00000000E-01   1.25000000E-02   5.00000000E-01   0.00000000E+00   3.19664151E-09   8.35408399E-13   0.00000000E+00   4.08305141E-11   1.82652689E-08   2.18224867E-35
   5.00000000E-01   1.25000000E-02   5.00000000E-01  -5.76741824E-07   5.25982465E-07   3.09741217E-11   0.00000000E+00   1.01319870E-10   3.10786366E-07   9.72243275E-36
   6.00000000E-01   1.25000000E-02   5.00000000E-01  -3.12483638E-08   6.27108304E-08   3.77126938E-13   0.00000000E+00   7.64497103E-15   3.93053423E-09   5.35759031E-35
   7.00000000E-01   1.25000000E-02   5.00000000E-01  -1.31254141E-09   3.18367254E-09   1.66207932E-14   0.00000000E+00   1.55589458E-16   5.34187080E-11   8.02802941E-35
   8.00000000E-01   1.25000000E-02   5.00000000E-01  -4.02163105E-11   9.90652344E-11   5.14096786E-16   0.00000000E+00   4.75112741E-18   1.22980316E-12   9.03228571E-35
   9.00000000E-01   1.25000000E-02   5.00000000E-01  -1.08710063E-12   2.66317864E-12   1.38876297E-17   0.00000000E+00   1.26883225E-19   3.20582288E-14   9.24218805E-35
   1.00000000E+00   1.25000000E-02   5.00000000E-01  -2.87922225E-14   7.01981937E-14   3.51312859E-19   0.00000000E+00   3.51312859E-21   8.44222366E-16   9.34022851E-35
   1.10000000E+00   1.25000000E-02   5.00000000E-01  -6.96364424E-16   1.62009680E-15   0.00000000E+00   0.00000000E+00  -1.77635956E-21   1.92095174E-17   9.38817139E-35
   1.20000000E+00   1.25000000E-02   5.00000000E-01   9.91553205E-18  -9.19423426E-17  -1.04600154E-21   0.00000000E+00  -1.77635956E-21  -1.40350735E-18   9.41502433E-35
   1.30000000E+00   1.25000000E-02   5.00000000E-01   2.25251532E-17  -1.16290345E-16  -1.13470879E-21   0.00000000E+00  -1.77635956E-21  -1.70540771E-18   9.43099433E-35
   1.40000000E+00   1.25000000E-02   5.00000000E-01   1.54456226E-17  -8.97638925E-17  -9.77985317E-22   0.00000000E+00  -1.77635956E-21  -1.42111537E-18   9.44016567E-35
   1.50000000E+00   1.25000000E-02   5.00000000E-01   7.63687110E-18  -6.17263943E-17  -8.20869113E-22   0.00000000E+00   0.00000000E+00  -1.13687478E-18   9.44366245E-35
   1.60000000E+00   1.25000000E-02   5.00000000E-01   1.42100470E-18  -3.96951685E-17  -6.95440932E-22   0.00000000E+00  -1.77635956E-21  -9.05942012E-19   9.44493508E-35
   1.70000000E+00   1.25000000E-02   5.00000000E-01  -2.30913032E-18  -2.56716993E-17  -6.00025068E-22   0.00000000E+00   1.77634013E-21  -7.46068424E-19   9.44538313E-35
   1.80000000E+00   1.25000000E-02   5.00000000E-01  -4.08542011E-18  -1.71242897E-17  -5.26775700E-22   0.00000000E+00   1.77637155E-21  -6.21723250E-19   9.44555020E-35
   1.90000000E+00   1.25000000E-02   5.00000000E-01  -4.79595058E-18  -1.32882823E-17  -4.82866653E-22   0.00000000E+00  -1.77635956E-21  -5.50669097E-19   9.44559109E-35
   2.00000000E+00   1.25000000E-02   5.00000000E-01  -4.97358893E-18  -1.13716911E-17  -4.53599769E-22   0.00000000E+00  -1.77635956E-21  -5.32905543E-19   9.44560875E-35
   2.10000000E+00   1.25000000E-02   5.00000000E-01  -4.44070597E-18  -1.02996887E-17  -4.17019434E-22   0.00000000E+00  -3.55271912E-21  -4.79614965E-19   9.44561985E-35
   2.20000000E+00   1.25000000E-02   5.00000000E-01  -4.44070112E-18  -9.39257926E-18  -3.95070175E-22   0.00000000E+00  -1.77635956E-21  -4.61851412E-19   9.44563505E-35
   2.30000000E+00   1.25000000E-02   5.00000000E-01  -4.08544957E-18  -8.63108152E-18  -3.73129276E-22   0.00000000E+00   0.00000000E+00  -4.26324409E-19   9.44563424E-35
   2.40000000E+00   1.25000000E-02   5.00000000E-01  -4.08546432E-18  -7.96766707E-18  -3.51197597E-22   0.00000000E+00  -1.77635956E-21  -3.90797464E-19   9.44561757E-35
   2.50000000E+00   1.25000000E-02   5.00000000E-01  -3.73021387E-18  -7.27187477E-18  -3.21937330E-22   0.00000000E+00  -3.55271912E-21  -3.73033959E-19   9.44561259E-35
   2.60000000E+00   1.25000000E-02   5.00000000E-01  -3.73021576E-18  -6.36842953E-18  -2.99988407E-22   0.00000000E+00   3.55276946E-21  -3.73033949E-19   9.44562025E-35
   2.70000000E+00   1.25000000E-02   5.00000000E-01  -4.08547145E-18  -4.41411047E-18  -2.85350735E-22   0.00000000E+00   0.00000000E+00  -3.37506867E-19   9.44565048E-35
   2.80000000E+00   1.25000000E-02   5.00000000E-01  -3.55258166E-18  -3.95926416E-18  -2.63401481E-22   0.00000000E+00   3.55278381E-21  -3.01979818E-19   9.44565840E-35
   2.90000000E+00   1.25000000E-02   5.00000000E-01  -3.55258775E-18  -3.65563814E-18  -2.48776946E-22   0.00000000E+00   1.77639047E-21  -2.84216337E-19   9.44565076E-35
   2.97500000E+00   1.25000000E-02   5.00000000E-01  -3.55259770E-18  -3.47926323E-18  -2.41470784E-22   0.00000000E+00  -1.77635956E-21  -2.84216392E-19   9.44563570E-35
   2.50000000E-02   5.00000000E-02   5.00000000E-01   0.00000000E+00  -3.58803560E-07   7.15114596E-10   6.69095261E-11   3.75044786E-08  -2.93894109E-26   8.25981787E-35
   1.00000000E-01   5.00000000E-02   5.00000000E-01   0.00000000E+00  -8.69450304E-08   2.02768742E-09   0.00000000E+00   3.30906234E-07  -6.37049653E-07   4.72905192E-35
   2.00000000E-01   5.00000000E-02   5.00000000E-01   0.00000000E+00  -3.12822628E-09   7.95340003E-10   0.00000000E+00   9.03826807E-08  -2.27600188E-07   4.33135489E-35
   3.00000000E-01   5.00000000E-02   5.00000000E-01   0.00000000E+00  -2.71138729E-09   3.85887987E-10   0.00000000E+00   2.74017301E-08  -1.14273903E-07   3.95314716E-35
   4.00000000E-01   5.00000000E-02   5.00000000E-01   0.00000000E+00  -2.22343195E-10   1.56272708E-11   0.00000000E+00   3.67532752E-10  -1.03705214E-08   4.04990649E-35
   5.00000000E-01   5.00000000E-02   5.00000000E-01   0.00000000E+00   2.12176391E-08   2.89516762E-12   0.00000000E+00   1.46303270E-10   1.22686280E-07   2.58914885E-35
   6.00000000E-01   5.00000000E-02   5.00000000E-01  -4.29734319E-07   3.84763845E-07   2.20051101E-11   0.00000000E+00   5.29614311E-11   2.02398179E-07   1.08603607E-35
   7.00000000E-01   5.00000000E-02   5.00000000E-01  -9.51154992E-09   1.83359493E-08   1.13490927E-13   0.00000000E+00   1.58166736E-15   1.02268039E-09   6.82412425E-35
   8.00000000E-01   5.00000000E-02   5.00000000E-01  -2.18337959E-10   5.16862715E-10   2.76259060E-15   0.00000000E+00   2.53610351E-17   8.50801705E-12   8.43410789E-35
   9.00000000E-01   5.00000000E-02   5.00000000E-01  -4.94366204E-12   1.20819026E-11   6.31485242E-17   0.00000000E+00   5.77929327E-19   1.50505406E-13   9.01184692E-35
   1.00000000E+00   5.00000000E-02   5.00000000E-01  -9.27045058E-14   2.26622861E-13   1.18826647E-18   0.00000000E+00   8.73725345E-21   2.73180714E-15   9.29176849E-35
   1.10000000E+00   5.00000000E-02   5.00000000E-01  -1.51020525E-15   3.60767022E-15   1.76716641E-20   0.00000000E+00   0.00000000E+00   4.31542037E-17   9.39660343E-35
   1.20000000E+00   5.00000000E-02   5.00000000E-01  -1.41980580E-18  -6.22239096E-17  -8.86823630E-22   0.00000000E+00   1.77264703E-21  -1.06590461E-18   9.42574567E-35
   1.30000000E+00   5.00000000E-02   5.00000000E-01   1.72143935E-17  -9.92049113E-17  -1.06247939E-21   0.00000000E+00  -1.77635956E-21  -1.54548787E-18   9.43655427E-35
   1.40000000E+00   5.00000000E-02   5.00000000E-01   1.29616101E-17  -8.19588237E-17  -9.47626036E-22   0.00000000E+00  -1.77635956E-21  -1.36781716E-18   9.44125103E-35
   1.50000000E+00   5.00000000E-02   5.00000000E-01   9.05732948E-18  -6.68564513E-17  -8.43172219E-22   0.00000000E+00   1.77594696E-21  -1.19016791E-18   9.44329247E-35
   1.60000000E+00   5.00000000E-02   5.00000000E-01   4.79565579E-18  -5.08299788E-17  -7.32366379E-22   0.00000000E+00   1.77616881E-21  -9.76998319E-19   9.44447215E-35
   1.70000000E+00   5.00000000E-02   5.00000000E-01   1.77630357E-19  -3.34666775E-17  -6.29402256E-22   0.00000000E+00   3.55260714E-21  -7.99359667E-19   9.44518871E-35
   1.80000000E+00   5.00000000E-02   5.00000000E-01  -3.01964297E-18  -2.09497210E-17  -5.34110430E-22   0.00000000E+00  -1.77635956E-21  -6.92777452E-19   9.44549286E-35
   1.90000000E+00   5.00000000E-02   5.00000000E-01  -3.37491879E-18  -1.80353311E-17  -5.04844597E-22   0.00000000E+00   1.77636489E-21  -6.21723374E-19   9.44551478E-35
   2.00000000E+00   5.00000000E-02   5.00000000E-01  -4.08543213E-18  -1.40987916E-17  -4.60913747E-22   0.00000000E+00   0.00000000E+00  -5.50669080E-19   9.44558559E-35
   2.10000000E+00   5.00000000E-02   5.00000000E-01  -4.08543152E-18  -1.18626611E-17  -4.24317220E-22   0.00000000E+00  -1.77635956E-21  -4.97378416E-19   9.44562162E-35
   2.20000000E+00   5.00000000E-02   5.00000000E-01  -4.26307552E-18  -1.04648083E-17  -4.09703414E-22   0.00000000E+00   0.00000000E+00  -4.79615005E-19   9.44561528E-35
   2.30000000E+00   5.00000000E-02   5.00000000E-01  -4.08544710E-18  -9.28803097E-18  -3.65801732E-22   0.00000000E+00  -1.77635956E-21  -4.44087907E-19   9.44562806E-35
   2.40000000E+00   5.00000000E-02   5.00000000E-01  -3.90781426E-18  -8.23137115E-18  -3.43851850E-22   0.00000000E+00  -1.77635956E-21  -4.08560837E-19   9.44564654E-35
   2.50000000E+00   5.00000000E-02   5.00000000E-01  -3.73019352E-18  -7.07421995E-18  -3.21916238E-22   0.00000000E+00   0.00000000E+00  -3.73033849E-19   9.44564879E-35
   2.60000000E+00   5.00000000E-02   5.00000000E-01  -4.08546054E-18  -5.46936363E-18  -2.99977207E-22   0.00000000E+00   3.55278222E-21  -3.37506843E-19   9.44565419E-35
   2.70000000E+00   5.00000000E-02   5.00000000E-01  -3.90784081E-18  -4.15046666E-18  -2.78035947E-22   0.00000000E+00   0.00000000E+00  -3.01979832E-19   9.44565619E-35
   2.80000000E+00   5.00000000E-02   5.00000000E-01  -3.90783728E-18  -3.44421721E-18  -2.56086260E-22   0.00000000E+00   3.55278775E-21  -3.01979812E-19   9.44566888E-35
   2.90000000E+00   5.00000000E-02   5.00000000E-01  -3.90784828E-18  -2.29745680E-18  -2.48778567E-22   0.00000000E+00  -3.55271912E-21  -2.66452810E-19   9.44566416E-35
   2.97500000E+00   5.00000000E-02   5.00000000E-01  -4.08548947E-18  -2.05049531E-18  -2.26836047E-22   0.00000000E+00   0.00000000E+00  -2.66452856E-19   9.44564917E-35
   2.50000000E-02   1.00000000E-01   5.00000000E-01   0.00000000E+00   0.00000000E+00   2.28003108E-08   4.30357122E-09  -7.89896177E-08   0.00000000E+00   1.26009525E-34
   1.00000000E-01   1.00000000E-01   5.00000000E-01   0.00000000E+00   0.00000000E+00   2.22391922E-10  -4.18487893E-12   6.50574970E-08   0.00000000E+00   1.12022812E-34
   2.00000000E-01   1.00000000E-01   5.00000000E-01   0.00000000E+00  -1.07019108E-07  -5.76441496E-11   0.00000000E+00   5.47163091E-08   0.00000000E+00   1.01399600E-34
   3.00000000E-01   1.00000000E-01   5.00000000E-01   0.00000000E+00  -8.97905342E-09   8.55661258E-11   0.00000000E+00   4.78589126E-08   0.00000000E+00   1.01338182E-34
   4.00000000E-01   1.00000000E-01   5.00000000E-01   0.00000000E+00  -3.03658232E-09   3.73242287E-10   0.00000000E+00   2.35298040E-08  -1.15258680E-07   5.49707601E-35
   5.00000000E-01   1.00000000E-01   5.00000000E-01   0.00000000E+00   4.16125350E-10   1.24155231E-11   0.00000000E+00   3.41803127E-10  -4.59850827E-09   3.78169857E-35
   6.00000000E-01   1.00000000E-01   5.00000000E-01   0.00000000E+00   2.18276330E-08   6.19326694E-12   0.00000000E+00   1.43655711E-10   1.62273660E-07   1.41510250E-35
   7.00000000E-01   1.00000000E-01   5.00000000E-01  -3.17692296E-07   2.83190235E-07   1.52377963E-11   0.00000000E+00   2.40913748E-11   1.27395713E-07   6.32413597E-35
   8.00000000E-01   1.00000000E-01   5.00000000E-01  -2.97080628E-09   5.66914097E-09   3.52754710E-14   0.00000000E+00   3.91440667E-16   2.95762500E-10   8.04199094E-35
   9.00000000E-01   1.00000000E-01   5.00000000E-01  -3.89372044E-11   9.12146539E-11   4.92586706E-16   0.00000000E+00   4.49441641E-18   1.48672133E-12   8.85777855E-35
   1.00000000E+00   1.00000000E-01   5.00000000E-01  -4.94954556E-13   1.20300508E-12   6.31893842E-18   0.00000000E+00   5.76035823E-20   1.50209545E-14   9.28173156E-35
   1.10000000E+00   1.00000000E-01   5.00000000E-01  -5.81565100E-15   1.40947220E-14   7.07992865E-20   0.00000000E+00  -1.77635957E-21   1.70148385E-16   9.41157572E-35
   1.20000000E+00   1.00000000E-01   5.00000000E-01  -4.20756382E-17   3.14907101E-17  -7.39852022E-24   0.00000000E+00   1.77412451E-21   1.59671206E-19   9.43360194E-35
   1.30000000E+00   1.00000000E-01   5.00000000E-01   1.01203324E-17  -7.55772573E-17  -9.62634182E-22   0.00000000E+00   1.77549690E-21  -1.35005537E-18   9.44089940E-35
   1.40000000E+00   1.00000000E-01   5.00000000E-01   9.76672004E-18  -7.10741243E-17  -8.95280727E-22   0.00000000E+00   0.00000000E+00  -1.26122785E-18   9.44233708E-35
   1.50000000E+00   1.00000000E-01   5.00000000E-01   6.21617386E-18  -5.67583693E-17  -7.98764781E-22   0.00000000E+00   1.77604968E-21  -1.08358304E-18   9.44383866E-35
   1.60000000E+00   1.00000000E-01   5.00000000E-01   2.84192458E-18  -4.43506994E-17  -7.24934505E-22   0.00000000E+00  -1.77635956E-21  -9.59234060E-19   9.44465322E-35
   1.70000000E+00   1.00000000E-01   5.00000000E-01   1.24339029E-18  -3.68573097E-17  -6.51474891E-22   0.00000000E+00   0.00000000E+00  -8.34887477E-19   9.44502000E-35
   1.80000000E+00   1.00000000E-01   5.00000000E-01  -1.77625512E-19  -3.03998553E-17  -5.92812013E-22   0.00000000E+00   1.77631029E-21  -7.63832632E-19   9.44522442E-35
   1.90000000E+00   1.00000000E-01   5.00000000E-01  -1.77626686E-18  -2.33063571E-17  -5.26848476E-22   0.00000000E+00   0.00000000E+00  -6.75014276E-19   9.44540167E-35
   2.00000000E+00   1.00000000E-01   5.00000000E-01  -3.90778443E-18  -1.38464121E-17  -4.60893135E-22   0.00000000E+00   0.00000000E+00  -5.32905425E-19   9.44561732E-35
   2.10000000E+00   1.00000000E-01   5.00000000E-01  -4.61831099E-18  -9.90586408E-18  -4.09687130E-22   0.00000000E+00  -1.77635956E-21  -4.79614867E-19   9.44565454E-35
   2.20000000E+00   1.00000000E-01   5.00000000E-01  -4.44070366E-18  -9.17505845E-18  -3.95070007E-22   0.00000000E+00  -3.55271912E-21  -4.61851438E-19   9.44563475E-35
   2.30000000E+00   1.00000000E-01   5.00000000E-01  -4.26308785E-18  -8.44785020E-18  -3.65818382E-22   0.00000000E+00   0.00000000E+00  -4.08560941E-19   9.44562398E-35
   2.40000000E+00   1.00000000E-01   5.00000000E-01  -4.26306168E-18  -6.72172803E-18  -3.43839245E-22   0.00000000E+00   1.77639646E-21  -4.08560737E-19   9.44568263E-35
   2.50000000E+00   1.00000000E-01   5.00000000E-01  -4.44070660E-18  -4.88611678E-18  -3.14598246E-22   0.00000000E+00   0.00000000E+00  -3.37506799E-19   9.44568073E-35
   2.60000000E+00   1.00000000E-01   5.00000000E-01  -4.44073237E-18  -4.21937429E-18  -2.99988806E-22   0.00000000E+00   1.77639072E-21  -3.37506907E-19   9.44565208E-35
   2.70000000E+00   1.00000000E-01   5.00000000E-01  -4.08547454E-18  -4.03093560E-18  -2.70720745E-22   0.00000000E+00   0.00000000E+00  -3.01979839E-19   9.44565150E-35
   2.80000000E+00   1.00000000E-01   5.00000000E-01  -4.08546793E-18  -3.15178206E-18  -2.56085875E-22   0.00000000E+00   1.77639414E-21  -3.01979809E-19   9.44567031E-35
   2.90000000E+00   1.00000000E-01   5.00000000E-01  -4.08548771E-18  -2.31207852E-18  -2.41467131E-22   0.00000000E+00   0.00000000E+00  -2.66452841E-19   9.44564960E-35
   2.97500000E+00   1.00000000E-01   5.00000000E-01  -3.90786934E-18  -1.84880050E-18  -2.41476441E-22   0.00000000E+00   0.00000000E+00  -2.48689362E-19   9.44563616E-35
   2.50000000E-02   1.50000000E-01   5.00000000E-01   0.00000000E+00   0.00000000E+00   3.27685689E-08   7.06893505E-09  -1.23037614E-07   0.00000000E+00   1.29208650E-34
   1.00000000E-01   1.50000000E-01   5.00000000E-01   0.00000000E+00   0.00000000E+00   5.13426324E-10  -6.21348047E-13   4.54630563E-09   0.00000000E+00   1.20136985E-34
   2.00000000E-01   1.50000000E-01   5.00000000E-01   0.00000000E+00   0.00000000E+00  -3.56168903E-10   0.00000000E+00   1.13566562E-08   0.00000000E+00   1.15138355E-34
   3.00000000E-01   1.50000000E-01   5.00000000E-01   0.00000000E+00   0.00000000E+00  -1.81190308E-10   0.00000000E+00   2.66435301E-08   0.00000000E+00   1.15689278E-34
   4.00000000E-01   1.50000000E-01   5.00000000E-01   0.00000000E+00  -3.98850471E-09   3.68663744E-10   0.00000000E+00   4.62095516E-08  -3.55883986E-08   9.05555590E-35
   5.00000000E-01   1.50000000E-01   5.00000000E-01   0.00000000E+00   3.42646289E-09   4.44284167E-11   0.00000000E+00   1.32894102E-09   7.50056000E-09   3.62629559E-35
   6.00000000E-01   1.50000000E-01   5.00000000E-01  -4.34066374E-07   4.06530710E-07   2.33512350E-11   0.00000000E+00   8.61372125E-11   2.37485865E-07   1.25840899E-35
   7.00000000E-01   1.50000000E-01   5.00000000E-01  -1.44608249E-08   2.40629668E-08   1.79001767E-13   0.00000000E+00   3.51846835E-15   1.30295464E-09   8.00231032E-35
   8.00000000E-01   1.50000000E-01   5.00000000E-01  -2.51050133E-10   5.77450265E-10   3.17329513E-15   0.00000000E+00   2.88647446E-17   9.49009627E-12   8.99404194E-35
   9.00000000E-01   1.50000000E-01   5.00000000E-01  -5.07307037E-12   1.22801507E-11   6.47813559E-17   0.00000000E+00   5.95194881E-19   1.53850717E-13   9.17346786E-35
   1.00000000E+00   1.50000000E-01   5.00000000E-01  -1.10417505E-13   2.69033847E-13   1.40089190E-18   0.00000000E+00   1.22578041E-20   3.25271338E-15   9.31125214E-35
   1.10000000E+00   1.50000000E-01   5.00000000E-01  -2.58319416E-15   6.21905468E-15   3.52359364E-20   0.00000000E+00  -1.77635956E-21   7.46649492E-17   9.36805156E-35
   1.20000000E+00   1.50000000E-01   5.00000000E-01  -1.96865405E-17  -2.15673247E-17  -6.57464184E-22   0.00000000E+00  -1.77635957E-21  -5.32988636E-19   9.41026046E-35
   1.30000000E+00   1.50000000E-01   5.00000000E-01   2.25219910E-17  -1.16185004E-16  -1.12113835E-21   0.00000000E+00   0.00000000E+00  -1.68765206E-18   9.42967036E-35
   1.40000000E+00   1.50000000E-01   5.00000000E-01   2.18263373E-17  -1.10278357E-16  -1.05612882E-21   0.00000000E+00  -1.77635956E-21  -1.59878825E-18   9.43559304E-35
   1.50000000E+00   1.50000000E-01   5.00000000E-01   1.77533101E-17  -9.49727315E-17  -9.48735156E-22   0.00000000E+00   0.00000000E+00  -1.40335259E-18   9.44001731E-35
   1.60000000E+00   1.50000000E-01   5.00000000E-01   1.29635869E-17  -7.68918881E-17  -8.28945292E-22   0.00000000E+00  -1.77635956E-21  -1.22569827E-18   9.44269092E-35
   1.70000000E+00   1.50000000E-01   5.00000000E-01   8.34760686E-18  -5.97087190E-17  -7.32673248E-22   0.00000000E+00  -1.77635956E-21  -1.01252753E-18   9.44403482E-35
   1.80000000E+00   1.50000000E-01   5.00000000E-01   3.01964320E-18  -4.06572664E-17  -6.22210953E-22   0.00000000E+00   0.00000000E+00  -8.34887532E-19   9.44496078E-35
   1.90000000E+00   1.50000000E-01   5.00000000E-01  -5.32874988E-19  -2.65861520E-17  -5.26864612E-22   0.00000000E+00   3.55267232E-21  -6.92777902E-19   9.44536201E-35
   2.00000000E+00   1.50000000E-01   5.00000000E-01  -3.19727126E-18  -1.58549105E-17  -4.68222461E-22   0.00000000E+00   0.00000000E+00  -5.68432532E-19   9.44559113E-35
   2.10000000E+00   1.50000000E-01   5.00000000E-01  -4.44068149E-18  -1.05929406E-17  -4.24320377E-22   0.00000000E+00  -3.55271913E-21  -4.79614874E-19   9.44564655E-35
   2.20000000E+00   1.50000000E-01   5.00000000E-01  -4.79596062E-18  -8.20637651E-18  -3.87760631E-22   0.00000000E+00  -1.77635956E-21  -4.44087926E-19   9.44564806E-35
   2.30000000E+00   1.50000000E-01   5.00000000E-01  -4.61834876E-18  -6.92598195E-18  -3.58507066E-22   0.00000000E+00   0.00000000E+00  -4.08560935E-19   9.44564178E-35
   2.40000000E+00   1.50000000E-01   5.00000000E-01  -4.79597747E-18  -4.60808734E-18  -3.36557524E-22   0.00000000E+00  -3.55271912E-21  -3.73033862E-19   9.44566861E-35
   2.50000000E+00   1.50000000E-01   5.00000000E-01  -4.61835876E-18  -4.21046058E-18  -3.07302964E-22   0.00000000E+00   1.77639188E-21  -3.55270387E-19   9.44565830E-35
   2.60000000E+00   1.50000000E-01   5.00000000E-01  -4.44073424E-18  -3.96514927E-18  -2.85356479E-22   0.00000000E+00   1.77639091E-21  -3.19743365E-19   9.44565312E-35
   2.70000000E+00   1.50000000E-01   5.00000000E-01  -4.08548829E-18  -3.72938933E-18  -2.70735942E-22   0.00000000E+00   0.00000000E+00  -3.01979911E-19   9.44563544E-35
   2.80000000E+00   1.50000000E-01   5.00000000E-01  -4.08549304E-18  -3.43250901E-18  -2.63420591E-22   0.00000000E+00   0.00000000E+00  -3.01979912E-19   9.44563078E-35
   2.90000000E+00   1.50000000E-01   5.00000000E-01  -3.73023215E-18  -2.99895315E-18  -2.48784437E-22   0.00000000E+00  -1.77635956E-21  -2.66452849E-19   9.44563581E-35
   2.97500000E+00   1.50000000E-01   5.00000000E-01  -3.90786223E-18  -2.36267315E-18  -2.34150639E-22   0.00000000E+00   0.00000000E+00  -2.66452845E-19   9.44564240E-35
   2.50000000E-02   2.00000000E-01   5.00000000E-01   0.00000000E+00   0.00000000E+00   4.80433317E-09   6.70823330E-10  -1.39532006E-08   0.00000000E+00   1.16016318E-34
   1.00000000E-01   2.00000000E-01   5.00000000E-01   0.00000000E+00  -2.71833600E-07  -7.38631242E-11   0.00000000E+00   5.21144539E-08   0.00000000E+00   7.56037744E-35
   2.00000000E-01   2.00000000E-01   5.00000000E-01   0.00000000E+00  -4.15052537E-08  -2.15386655E-11   0.00000000E+00   5.02942189E-08   0.00000000E+00   8.38715905E-35
   3.00000000E-01   2.00000000E-01   5.00000000E-01   0.00000000E+00  -6.31814156E-09   2.66376097E-10   0.00000000E+00   5.08698780E-08  -3.42871522E-08   7.11772346E-35
   4.00000000E-01   2.00000000E-01   5.00000000E-01   0.00000000E+00  -2.76561516E-09   2.06586200E-10   0.00000000E+00   9.04847629E-09  -8.54462217E-08   4.72908477E-35
   5.00000000E-01   2.00000000E-01   5.00000000E-01   0.00000000E+00   1.73260236E-08   4.31789353E-12   0.00000000E+00   1.80448027E-10   1.01345836E-07   2.53165682E-35
   6.00000000E-01   2.00000000E-01   5.00000000E-01  -1.16247632E-06   1.04117393E-06   6.36962871E-11   0.00000000E+00   2.45184380E-10   6.83452987E-07   1.89286392E-35
   7.00000000E-01   2.00000000E-01   5.00000000E-01  -1.38867061E-08   2.76125445E-08   1.66520472E-13   0.00000000E+00   4.35471236E-15   2.13559573E-09   7.86196315E-35
   8.00000000E-01   2.00000000E-01   5.00000000E-01  -2.30922244E-10   5.46253819E-10   2.91180824E-15   0.00000000E+00   2.69009644E-17   1.00247171E-11   8.95967811E-35
   9.00000000E-01   2.00000000E-01   5.00000000E-01  -4.07366152E-12   9.90677419E-12   5.20424668E-17   0.00000000E+00   4.78811588E-19   1.25351498E-13   9.25817552E-35
   1.00000000E+00   2.00000000E-01   5.00000000E-01  -7.65863518E-14   1.86604267E-13   9.50769024E-19   0.00000000E+00   8.80341689E-21   2.25804122E-15   9.36213103E-35
   1.10000000E+00   2.00000000E-01   5.00000000E-01  -1.32534269E-15   3.15425486E-15   1.76837745E-20   0.00000000E+00  -5.32907869E-21   3.77371748E-17   9.40304293E-35
   1.20000000E+00   2.00000000E-01   5.00000000E-01   0.00000000E+00  -6.74521076E-17  -9.03238370E-22   0.00000000E+00  -1.77635956E-21  -1.10144364E-18   9.42392327E-35
   1.30000000E+00   2.00000000E-01   5.00000000E-01   1.84562168E-17  -1.02197997E-16  -1.06265886E-21   0.00000000E+00   0.00000000E+00  -1.58101753E-18   9.43632292E-35
   1.40000000E+00   2.00000000E-01   5.00000000E-01   1.08322746E-17  -7.37481099E-17  -9.02537443E-22   0.00000000E+00  -1.77635956E-21  -1.27899107E-18   9.44241914E-35
   1.50000000E+00   2.00000000E-01   5.00000000E-01   4.08517799E-18  -4.97198724E-17  -7.54349245E-22   0.00000000E+00   1.77616434E-21  -1.01252558E-18   9.44444839E-35
   1.60000000E+00   2.00000000E-01   5.00000000E-01  -5.32869769E-19  -3.22854452E-17  -6.51357268E-22   0.00000000E+00   5.32891808E-21  -8.34886738E-19   9.44520176E-35
   1.70000000E+00   2.00000000E-01   5.00000000E-01  -1.77623574E-18  -2.66718267E-17  -6.00003192E-22   0.00000000E+00   0.00000000E+00  -7.28304708E-19   9.44540299E-35
   1.80000000E+00   2.00000000E-01   5.00000000E-01  -2.30912384E-18  -2.33595428E-17  -5.48762044E-22   0.00000000E+00   1.77635501E-21  -6.92777551E-19   9.44546222E-35
   1.90000000E+00   2.00000000E-01   5.00000000E-01  -3.55252402E-18  -1.74415660E-17  -4.97502815E-22   0.00000000E+00  -3.55271913E-21  -5.86196139E-19   9.44556298E-35
   2.00000000E+00   2.00000000E-01   5.00000000E-01  -4.26305399E-18  -1.36847768E-17  -4.60917312E-22   0.00000000E+00   0.00000000E+00  -5.50669074E-19   9.44560015E-35
   2.10000000E+00   2.00000000E-01   5.00000000E-01  -4.26307573E-18  -1.14012400E-17  -4.31661493E-22   0.00000000E+00   0.00000000E+00  -5.15142078E-19   9.44560469E-35
   2.20000000E+00   2.00000000E-01   5.00000000E-01  -4.44066108E-18  -8.89312970E-18  -3.95027637E-22   0.00000000E+00   0.00000000E+00  -4.44087647E-19   9.44569756E-35
   2.30000000E+00   2.00000000E-01   5.00000000E-01  -4.79592711E-18  -6.63246061E-18  -3.58464561E-22   0.00000000E+00   0.00000000E+00  -4.08560683E-19   9.44570973E-35
   2.40000000E+00   2.00000000E-01   5.00000000E-01  -4.79598441E-18  -5.55406658E-18  -3.43892672E-22   0.00000000E+00   0.00000000E+00  -3.73033999E-19   9.44564931E-35
   2.50000000E+00   2.00000000E-01   5.00000000E-01  -4.61835961E-18  -4.55160340E-18  -3.07298799E-22   0.00000000E+00   1.77639108E-21  -3.73033914E-19   9.44565401E-35
   2.60000000E+00   2.00000000E-01   5.00000000E-01  -4.26309645E-18  -4.15402817E-18  -2.92662146E-22   0.00000000E+00   0.00000000E+00  -3.19743319E-19   9.44566359E-35
   2.70000000E+00   2.00000000E-01   5.00000000E-01  -4.08546930E-18  -3.48573474E-18  -2.70717995E-22   0.00000000E+00   1.77639349E-21  -3.01979816E-19   9.44566683E-35
   2.80000000E+00   2.00000000E-01   5.00000000E-01  -4.26310136E-18  -2.09977551E-18  -2.56087841E-22   0.00000000E+00  -1.77635956E-21  -2.84216298E-19   9.44567571E-35
   2.90000000E+00   2.00000000E-01   5.00000000E-01  -4.44074560E-18  -1.23005246E-18  -2.41463596E-22   0.00000000E+00  -1.77635956E-21  -2.48689301E-19   9.44566203E-35
   2.97500000E+00   2.00000000E-01   5.00000000E-01  -4.26312392E-18  -8.41091922E-19  -2.34152435E-22   0.00000000E+00   0.00000000E+00  -2.48689327E-19   9.44565302E-35
   2.50000000E-02   2.50000000E-01   5.00000000E-01   0.00000000E+00   0.00000000E+00   6.66631171E-09   1.21952639E-09   2.23377967E-08   0.00000000E+00   1.16830378E-34
   1.00000000E-01   2.50000000E-01   5.00000000E-01   0.00000000E+00  -8.77826758E-08   3.51111888E-09   0.00000000E+00   5.96189776E-07  -1.11321024E-06   5.84597347E-35
   2.00000000E-01   2.50000000E-01   5.00000000E-01   0.00000000E+00  -5.70045176E-09   1.37312204E-09   0.00000000E+00   1.48463044E-07  -3.96480678E-07   4.45474240E-35
   3.00000000E-01   2.50000000E-01   5.00000000E-01   0.00000000E+00  -4.35041518E-09   5.59528241E-10   0.00000000E+00   3.81291395E-08  -1.73330775E-07   3.64585329E-35
   4.00000000E-01   2.50000000E-01   5.00000000E-01   0.00000000E+00   2.62916756E-09   3.95225585E-12   0.00000000E+00   1.56673375E-10   1.39365057E-08   2.65719919E-35
   5.00000000E-01   2.50000000E-01   5.00000000E-01  -4.39874166E-07   4.08108585E-07   2.37399990E-11   0.00000000E+00   1.01539952E-10   2.64630973E-07   8.46429881E-36
   6.00000000E-01   2.50000000E-01   5.00000000E-01  -1.18005193E-07   2.32305936E-07   1.41382074E-12   0.00000000E+00   3.98811850E-14   1.91451345E-08   5.28775602E-35
   7.00000000E-01   2.50000000E-01   5.00000000E-01  -5.51539146E-09   1.35217818E-08   6.97325896E-14   0.00000000E+00   7.02356587E-16   2.59889251E-10   8.02841770E-35
   8.00000000E-01   2.50000000E-01   5.00000000E-01  -1.34644167E-10   3.33368006E-10   1.72198440E-15   0.00000000E+00   1.60256380E-17   4.20896196E-12   8.96890614E-35
   9.00000000E-01   2.50000000E-01   5.00000000E-01  -2.48880244E-12   6.10790548E-12   3.18533115E-17   0.00000000E+00   2.95456073E-19   7.35648209E-14   9.29607605E-35
   1.00000000E+00   2.50000000E-01   5.00000000E-01  -4.19881659E-14   1.02405346E-13   5.30185130E-19   0.00000000E+00   3.53456753E-21   1.23227395E-15   9.39722746E-35
   1.10000000E+00   2.50000000E-01   5.00000000E-01  -6.49467527E-16   1.50947119E-15   0.00000000E+00   0.00000000E+00  -1.77635956E-21   1.79274641E-17   9.42890273E-35
   1.20000000E+00   2.50000000E-01   5.00000000E-01   3.72813313E-18  -6.43804470E-17  -9.19417694E-22   0.00000000E+00   0.00000000E+00  -1.20794968E-18   9.43986033E-35
   1.30000000E+00   2.50000000E-01   5.00000000E-01   7.10348666E-18  -6.46398468E-17  -9.02154017E-22   0.00000000E+00   0.00000000E+00  -1.24346110E-18   9.44289213E-35
   1.40000000E+00   2.50000000E-01   5.00000000E-01   3.37467772E-18  -4.95836735E-17  -7.98372133E-22   0.00000000E+00  -1.77635956E-21  -1.06581693E-18   9.44435176E-35
   1.50000000E+00   2.50000000E-01   5.00000000E-01   3.55253641E-19  -3.73169338E-17  -7.10047521E-22   0.00000000E+00   0.00000000E+00  -9.23705384E-19   9.44500067E-35
   1.60000000E+00   2.50000000E-01   5.00000000E-01  -1.95388324E-18  -2.76499206E-17  -6.29341387E-22   0.00000000E+00   1.77632824E-21  -7.99359324E-19   9.44531988E-35
   1.70000000E+00   2.50000000E-01   5.00000000E-01  -3.55254258E-18  -2.11295216E-17  -5.78046818E-22   0.00000000E+00   0.00000000E+00  -7.10541215E-19   9.44546068E-35