 TITLE = "Mineral Rate (mol/m^3/sec)" 
VARIABLES = "X"          "Y"              "Z"            "Calcite"        "Gypsum"         "Ferrihydrite"   "Jarosite"       "Gibbsite"       "Siderite"       "TracerMineral" 
 ZONE I=          31 , J=          41 , K=           1  F=POINT
   2.50000000E-02   1.25000000E-02   5.00000000E-01  -5.33420529E-07  -2.86339729E-06   1.91279437E-07   3.29394119E-08   1.72948461E-06  -2.38936015E-06   1.10169797E-34
   1.00000000E-01   1.25000000E-02   5.00000000E-01  -5.14492374E-06   4.81416562E-06   3.41919029E-09   0.00000000E+00   1.27105950E-06   1.41596173E-06   5.72748709E-35
   2.00000000E-01   1.25000000E-02   5.00000000E-01  -7.38335632E-06   6.78491919E-06   2.81262516E-10   0.00000000E+00   2.76903685E-09   1.43034602E-06   5.98329898E-35
   3.00000000E-01   1.25000000E-02   5.00000000E-01  -1.48175139E-05   1.20239612E-05   1.65060876E-09   0.00000000E+00   2.41133645E-07   5.61793447E-06   5.76304733E-35
   4.00000000E-01   1.25000000E-02   5.00000000E-01  -1.80734868E-05   1.56676032E-05   1.77123682E-09   0.00000000E+00   3.49194142E-07   6.82291175E-06   6.22566424E-35
   5.00000000E-01   1.25000000E-02   5.00000000E-01  -9.76834979E-06   1.33209191E-05   1.69856517E-10   0.00000000E+00   1.12700287E-10   2.69518022E-06   7.20384270E-35
   6.00000000E-01   1.25000000E-02   5.00000000E-01  -3.76452872E-06   7.66655615E-06   5.69270498E-11   0.00000000E+00   3.89800644E-12   5.12042108E-07   8.31573494E-35
   7.00000000E-01   1.25000000E-02   5.00000000E-01  -1.40681996E-06   3.38516620E-06   1.96566615E-11   0.00000000E+00   6.70418803E-13   8.26818165E-08   8.94056336E-35
   8.00000000E-01   1.25000000E-02   5.00000000E-01  -4.74839112E-07   1.17807501E-06   6.31281728E-12   0.00000000E+00   1.18640203E-13   1.71164056E-08   9.21982316E-35
   9.00000000E-01   1.25000000E-02   5.00000000E-01  -2.13276272E-07   5.26819888E-07   2.76964815E-12   0.00000000E+00   3.54167205E-14   6.65195205E-09   9.29392896E-35
   1.00000000E+00   1.25000000E-02   5.00000000E-01  -9.52009940E-08   2.33759887E-07   1.22607904E-12   0.00000000E+00   1.32147578E-14   2.85198484E-09   9.35838122E-35
   1.10000000E+00   1.25000000E-02   5.00000000E-01  -4.33407369E-08   1.05978819E-07   5.56187980E-13   0.00000000E+00   5.53006802E-15   1.28248095E-09   9.39518281E-35
   1.20000000E+00   1.25000000E-02   5.00000000E-01  -1.83762331E-08   4.48226923E-08   2.35435785E-13   0.00000000E+00   2.24725306E-15   5.41264419E-10   9.41761485E-35
   1.30000000E+00   1.25000000E-02   5.00000000E-01  -6.58714913E-09   1.60448855E-08   8.43389018E-14   0.00000000E+00   7.88943940E-16   1.93650549E-10   9.43181328E-35
   1.40000000E+00   1.25000000E-02   5.00000000E-01  -1.69307399E-09   4.12112713E-09   2.16750104E-14   0.00000000E+00   2.00960291E-16   4.97368684E-11   9.44035201E-35
   1.50000000E+00   1.25000000E-02   5.00000000E-01  -4.07539619E-10   9.91759270E-10   5.21834888E-15   0.00000000E+00   4.82510167E-17   1.19703560E-11   9.44370267E-35
   1.60000000E+00   1.25000000E-02   5.00000000E-01  -9.63933068E-11   2.34580047E-10   1.23465878E-15   0.00000000E+00   1.14195591E-17   2.83161348E-12   9.44494371E-35
   1.70000000E+00   1.25000000E-02   5.00000000E-01  -2.37574069E-11   5.78241909E-11   3.04429233E-16   0.00000000E+00   2.81727601E-18   6.98047938E-13   9.44538509E-35
   1.80000000E+00   1.25000000E-02   5.00000000E-01  -5.75611630E-12   1.40150883E-11   7.38260051E-17   0.00000000E+00   6.85679450E-19   1.69208653E-13   9.44555065E-35
   1.90000000E+00   1.25000000E-02   5.00000000E-01  -1.64887335E-12   4.01819754E-12   2.11744408E-17   0.00000000E+00   1.95401719E-19   4.85268978E-14   9.44559121E-35
   2.00000000E+00   1.25000000E-02   5.00000000E-01  -5.60292012E-13   1.36823976E-12   7.24764089E-18   0.00000000E+00   6.75025377E-20   1.65359190E-14   9.44560880E-35
   2.10000000E+00   1.25000000E-02   5.00000000E-01  -1.91556952E-13   4.70511892E-13   2.50470236E-18   0.00000000E+00   2.66457698E-20   5.69814459E-15   9.44561987E-35
   2.20000000E+00   1.25000000E-02   5.00000000E-01  -6.49242937E-14   1.62157978E-13   9.05957632E-19   0.00000000E+00   8.88193757E-21   1.97539621E-15   9.44563507E-35
   2.30000000E+00   1.25000000E-02   5.00000000E-01  -2.73378746E-14   7.06062461E-14   3.90805219E-19   0.00000000E+00   5.32916208E-21   8.69967946E-16   9.44563425E-35
   2.40000000E+00   1.25000000E-02   5.00000000E-01  -1.28992319E-14   3.54286511E-14   2.13166107E-19   0.00000000E+00  -1.77635956E-21   4.45144123E-16   9.44561758E-35
   2.50000000E+00   1.25000000E-02   5.00000000E-01  -6.34900164E-15   1.95292026E-14   1.24346830E-19   0.00000000E+00   0.00000000E+00   2.53365548E-16   9.44561260E-35
   2.60000000E+00   1.25000000E-02   5.00000000E-01  -3.62417105E-15   1.29553515E-14   1.24346931E-19   0.00000000E+00   0.00000000E+00   1.74192287E-16   9.44562027E-35
   2.70000000E+00   1.25000000E-02   5.00000000E-01  -2.47597333E-15   1.02164654E-14   8.88195207E-20   0.00000000E+00   1.77639041E-21   1.41276330E-16   9.44565050E-35
   2.80000000E+00   1.25000000E-02   5.00000000E-01  -2.09975339E-15   9.36016422E-15   1.06583514E-19   0.00000000E+00   3.55278381E-21   1.31115486E-16   9.44565841E-35
   2.90000000E+00   1.25000000E-02   5.00000000E-01  -1.95800874E-15   9.04644610E-15   7.10556187E-20   0.00000000E+00   1.77639047E-21   1.27313905E-16   9.44565078E-35
   2.97500000E+00   1.25000000E-02   5.00000000E-01  -1.91413964E-15   8.98230408E-15   8.88193818E-20   0.00000000E+00   3.55277527E-21   1.26709730E-16   9.44563572E-35
   2.50000000E-02   5.00000000E-02   5.00000000E-01  -1.63217933E-06   4.54988706E-08   1.33816508E-07   5.30451302E-09   3.40910375E-06  -3.57418156E-06   6.89705859E-35
   1.00000000E-01   5.00000000E-02   5.00000000E-01  -7.73303270E-06   6.82937335E-06   4.58610870E-09   0.00000000E+00   2.20498144E-06   1.32912622E-06   6.00664407E-35
   2.00000000E-01   5.00000000E-02   5.00000000E-01  -7.51708312E-06   6.50519737E-06   6.94831030E-09   0.00000000E+00   4.23541303E-06   4.23120079E-07   5.01329746E-35
   3.00000000E-01   5.00000000E-02   5.00000000E-01  -1.35378087E-05   1.01079212E-05   1.09195623E-08   0.00000000E+00   1.06259745E-05  -3.05888876E-06   4.98935442E-35
   4.00000000E-01   5.00000000E-02   5.00000000E-01  -2.19475643E-05   1.49516829E-05   1.05971123E-08   0.00000000E+00   1.54843574E-05  -3.15972127E-06   5.43051907E-35
   5.00000000E-01   5.00000000E-02   5.00000000E-01  -2.12532010E-05   1.79317231E-05   2.63275954E-09   0.00000000E+00   6.02528275E-07   8.58354008E-06   6.24949231E-35
   6.00000000E-01   5.00000000E-02   5.00000000E-01  -1.01709690E-05   1.33256871E-05   1.93579492E-10   0.00000000E+00   1.71917471E-10   3.20059624E-06   7.20134443E-35
   7.00000000E-01   5.00000000E-02   5.00000000E-01  -3.36823402E-06   6.69830345E-06   5.06860451E-11   0.00000000E+00   3.55631484E-12   4.97134423E-07   8.19487875E-35
   8.00000000E-01   5.00000000E-02   5.00000000E-01  -1.19313808E-06   2.84254496E-06   1.64702024E-11   0.00000000E+00   5.24724080E-13   7.15294642E-08   8.79489441E-35
   9.00000000E-01   5.00000000E-02   5.00000000E-01  -4.58248975E-07   1.13398376E-06   6.07030990E-12   0.00000000E+00   1.09513794E-13   1.66709138E-08   9.11740288E-35
   1.00000000E+00   5.00000000E-02   5.00000000E-01  -1.33551067E-07   3.29668756E-07   1.73213355E-12   0.00000000E+00   2.15033469E-14   4.13571114E-09   9.31597472E-35
   1.10000000E+00   5.00000000E-02   5.00000000E-01  -3.21331129E-08   7.86987572E-08   4.12731573E-13   0.00000000E+00   4.16990774E-15   9.55085615E-10   9.40142465E-35
   1.20000000E+00   5.00000000E-02   5.00000000E-01  -9.75291616E-09   2.37849485E-08   1.24919195E-13   0.00000000E+00   1.17860948E-15   2.87119486E-10   9.42701677E-35
   1.30000000E+00   5.00000000E-02   5.00000000E-01  -3.27784286E-09   7.98160424E-09   4.19645417E-14   0.00000000E+00   3.89940899E-16   9.63144088E-11   9.43693538E-35
   1.40000000E+00   5.00000000E-02   5.00000000E-01  -1.12587743E-09   2.74020502E-09   1.44144281E-14   0.00000000E+00   1.33403236E-16   3.30702184E-11   9.44136987E-35
   1.50000000E+00   5.00000000E-02   5.00000000E-01  -4.31856693E-10   1.05092173E-09   5.52989632E-15   0.00000000E+00   5.11244044E-17   1.26845035E-11   9.44333424E-35
   1.60000000E+00   5.00000000E-02   5.00000000E-01  -1.49171463E-10   3.63015816E-10   1.91060962E-15   0.00000000E+00   1.76675751E-17   4.38191852E-12   9.44448540E-35
   1.70000000E+00   5.00000000E-02   5.00000000E-01  -3.94730323E-11   9.60716084E-11   5.05749318E-16   0.00000000E+00   4.67878514E-18   1.15974507E-12   9.44519193E-35
   1.80000000E+00   5.00000000E-02   5.00000000E-01  -7.95129649E-12   1.93583933E-11   1.01945351E-16   0.00000000E+00   9.46800348E-19   2.33711842E-13   9.44549346E-35
   1.90000000E+00   5.00000000E-02   5.00000000E-01  -3.08070552E-12   7.50354853E-12   3.95241197E-17   0.00000000E+00   3.64154811E-19   9.06012018E-14   9.44551500E-35
   2.00000000E+00   5.00000000E-02   5.00000000E-01  -1.21783727E-12   2.96871096E-12   1.56676559E-17   0.00000000E+00   1.49215771E-19   3.58555727E-14   9.44558568E-35
   2.10000000E+00   5.00000000E-02   5.00000000E-01  -5.33965711E-13   1.30384420E-12   6.89237377E-18   0.00000000E+00   6.39498598E-20   1.57569079E-14   9.44562167E-35
   2.20000000E+00   5.00000000E-02   5.00000000E-01  -2.40030153E-13   5.88250383E-13   3.14419932E-18   0.00000000E+00   3.19749084E-20   7.11823633E-15   9.44561531E-35
   2.30000000E+00   5.00000000E-02   5.00000000E-01  -8.75649864E-14   2.17064979E-13   1.17241489E-18   0.00000000E+00   1.24347034E-20   2.63722295E-15   9.44562808E-35
   2.40000000E+00   5.00000000E-02   5.00000000E-01  -2.72843591E-14   7.02972462E-14   3.90805728E-19   0.00000000E+00   5.32916902E-21   8.65385993E-16   9.44564655E-35
   2.50000000E+00   5.00000000E-02   5.00000000E-01  -8.44533575E-15   2.44785667E-14   1.59875109E-19   0.00000000E+00   1.77639010E-21   3.12413726E-16   9.44564880E-35
   2.60000000E+00   5.00000000E-02   5.00000000E-01  -3.52948265E-15   1.25887509E-14   7.10556445E-20   0.00000000E+00   1.77639111E-21   1.69147962E-16   9.44565420E-35
   2.70000000E+00   5.00000000E-02   5.00000000E-01  -2.31912589E-15   9.71401922E-15   1.06583489E-19   0.00000000E+00   3.55278298E-21   1.34703767E-16   9.44565621E-35
   2.80000000E+00   5.00000000E-02   5.00000000E-01  -1.94095173E-15   8.84812907E-15   8.88196937E-20   0.00000000E+00   1.77639387E-21   1.24383099E-16   9.44566889E-35
   2.90000000E+00   5.00000000E-02   5.00000000E-01  -1.80187332E-15   8.44612691E-15   8.88196493E-20   0.00000000E+00   1.77639299E-21   1.19142678E-16   9.44566417E-35
   2.97500000E+00   5.00000000E-02   5.00000000E-01  -1.79690485E-15   8.49070091E-15   8.88195085E-20   0.00000000E+00   3.55278034E-21   1.19853045E-16   9.44564919E-35
   2.50000000E-02   1.00000000E-01   5.00000000E-01  -5.30266399E-07   0.00000000E+00  -1.75720255E-06   3.74807414E-07  -7.82589845E-07  -2.40004811E-06   1.21690479E-34
   1.00000000E-01   1.00000000E-01   5.00000000E-01  -5.39817691E-07  -5.63889575E-06   5.77871168E-07  -5.39457923E-12   1.79918150E-06  -2.42498092E-06   8.75733507E-35
   2.00000000E-01   1.00000000E-01   5.00000000E-01  -6.97457151E-07  -5.43048884E-06   1.91138100E-07   0.00000000E+00   2.13469315E-06  -2.68950124E-06   8.35233874E-35
   3.00000000E-01   1.00000000E-01   5.00000000E-01  -1.84005036E-06  -1.09126147E-05   9.70270273E-08   0.00000000E+00   3.33043852E-06  -3.64467463E-06   6.46810801E-35
   4.00000000E-01   1.00000000E-01   5.00000000E-01  -6.18570504E-06   2.86589489E-06   1.76085474E-08   0.00000000E+00   7.13892032E-06  -4.89655408E-06   5.14529891E-35
   5.00000000E-01   1.00000000E-01   5.00000000E-01  -1.65832940E-05   1.17137274E-05   8.48975214E-09   0.00000000E+00   1.28814649E-05  -3.83853012E-06   4.61126038E-35
   6.00000000E-01   1.00000000E-01   5.00000000E-01  -1.23566305E-05   1.22151063E-05   1.27445628E-09   0.00000000E+00   3.27998710E-07   4.86850210E-06   6.47000630E-35
   7.00000000E-01   1.00000000E-01   5.00000000E-01  -3.51297345E-06   6.06213038E-06   5.28445420E-11   0.00000000E+00   2.84686979E-11   6.55496265E-07   7.65013689E-35
   8.00000000E-01   1.00000000E-01   5.00000000E-01  -1.23458884E-06   2.79769683E-06   1.68332996E-11   0.00000000E+00   5.42236328E-13   8.86129288E-08   8.41076808E-35
   9.00000000E-01   1.00000000E-01   5.00000000E-01  -4.17830699E-07   1.02519710E-06   5.52253935E-12   0.00000000E+00   9.93647164E-14   1.59675180E-08   8.95395178E-35
   1.00000000E+00   1.00000000E-01   5.00000000E-01  -8.79998338E-08   2.16989294E-07   1.13874299E-12   0.00000000E+00   1.35502616E-14   2.72674982E-09   9.29737002E-35
   1.10000000E+00   1.00000000E-01   5.00000000E-01  -1.24372281E-08   3.04085907E-08   1.59484467E-13   0.00000000E+00   1.54394069E-15   3.67971233E-10   9.41337670E-35
   1.20000000E+00   1.00000000E-01   5.00000000E-01  -3.11751124E-09   7.59522968E-09   3.99167525E-14   0.00000000E+00   3.71365706E-16   9.16340116E-11   9.43398755E-35
   1.30000000E+00   1.00000000E-01   5.00000000E-01  -9.06364821E-10   2.20627449E-09   1.16046804E-14   0.00000000E+00   1.07392053E-16   2.66231681E-11   9.44100070E-35
   1.40000000E+00   1.00000000E-01   5.00000000E-01  -4.21079125E-10   1.02483407E-09   5.39240733E-15   0.00000000E+00   4.98726426E-17   1.23686550E-11   9.44237964E-35
   1.50000000E+00   1.00000000E-01   5.00000000E-01  -1.74387303E-10   4.24406905E-10   2.23367035E-15   0.00000000E+00   2.06572681E-17   5.12275492E-12   9.44385486E-35
   1.60000000E+00   1.00000000E-01   5.00000000E-01  -7.44090896E-11   1.81095831E-10   9.53288704E-16   0.00000000E+00   8.82062922E-18   2.18604740E-12   9.44465964E-35
   1.70000000E+00   1.00000000E-01   5.00000000E-01  -3.44999278E-11   8.39728355E-11   4.42096425E-16   0.00000000E+00   4.09075522E-18   1.01369447E-12   9.44502279E-35
   1.80000000E+00   1.00000000E-01   5.00000000E-01  -1.63423261E-11   3.97817602E-11   2.09498062E-16   0.00000000E+00   1.94150739E-18   4.80252403E-13   9.44522566E-35
   1.90000000E+00   1.00000000E-01   5.00000000E-01  -6.50992617E-12   1.58505039E-11   8.34703907E-17   0.00000000E+00   7.72709511E-19   1.91363075E-13   9.44540213E-35
   2.00000000E+00   1.00000000E-01   5.00000000E-01  -1.16490501E-12   2.83926640E-12   1.49749187E-17   0.00000000E+00   1.38557967E-19   3.42904500E-14   9.44561740E-35
   2.10000000E+00   1.00000000E-01   5.00000000E-01  -1.84221045E-13   4.51515649E-13   2.39812809E-18   0.00000000E+00   2.48694765E-20   5.46400163E-15   9.44565455E-35
   2.20000000E+00   1.00000000E-01   5.00000000E-01  -8.07549066E-14   1.99924237E-13   1.11912410E-18   0.00000000E+00   1.24347122E-20   2.42796638E-15   9.44563476E-35
   2.30000000E+00   1.00000000E-01   5.00000000E-01  -3.32082109E-14   8.42592014E-14   4.44096358E-19   0.00000000E+00   5.32915629E-21   1.03206217E-15   9.44562399E-35
   2.40000000E+00   1.00000000E-01   5.00000000E-01  -1.22809926E-14   3.32255418E-14   2.13167575E-19   0.00000000E+00   5.32918938E-21   4.15623480E-16   9.44568264E-35
   2.50000000E+00   1.00000000E-01   5.00000000E-01  -5.43755642E-15   1.65513931E-14   1.24347727E-19   0.00000000E+00   3.55279221E-21   2.14197842E-16   9.44568073E-35
   2.60000000E+00   1.00000000E-01   5.00000000E-01  -3.06428296E-15   1.08538361E-14   1.06583443E-19   0.00000000E+00   1.77639072E-21   1.45717330E-16   9.44565209E-35
   2.70000000E+00   1.00000000E-01   5.00000000E-01  -2.07719736E-15   8.59648706E-15   7.10556243E-20   0.00000000E+00   3.55278121E-21   1.18982643E-16   9.44565151E-35
   2.80000000E+00   1.00000000E-01   5.00000000E-01  -1.70062043E-15   7.72074187E-15   7.10557658E-20   0.00000000E+00   0.00000000E+00   1.08484390E-16   9.44567032E-35
   2.90000000E+00   1.00000000E-01   5.00000000E-01  -1.52957107E-15   7.15370118E-15   5.32917075E-20   0.00000000E+00   1.77639025E-21   1.00916730E-16   9.44564961E-35
   2.97500000E+00   1.00000000E-01   5.00000000E-01  -1.50079946E-15   7.09942235E-15   7.10555089E-20   0.00000000E+00   3.55277544E-21   1.00294851E-16   9.44563617E-35
   2.50000000E-02   1.50000000E-01   5.00000000E-01  -5.29984263E-07   0.00000000E+00  -1.41511272E-06   7.26282547E-07  -5.43825761E-07  -2.39990729E-06   1.26659565E-34
   1.00000000E-01   1.50000000E-01   5.00000000E-01  -5.30984270E-07   0.00000000E+00   2.02130711E-07   1.74290481E-10  -1.01891308E-06  -2.40108146E-06   1.16000943E-34
   2.00000000E-01   1.50000000E-01   5.00000000E-01  -5.33991431E-07   0.00000000E+00   2.30847496E-06   8.75180433E-13  -9.45129616E-07  -2.40636686E-06   1.12700220E-34
   3.00000000E-01   1.50000000E-01   5.00000000E-01  -7.25081510E-07  -1.71029191E-05   1.14715367E-06   0.00000000E+00   6.17140784E-07  -2.68004444E-06   1.12824134E-34
   4.00000000E-01   1.50000000E-01   5.00000000E-01  -6.93887041E-06   4.97113718E-07   5.38779261E-08   0.00000000E+00   7.35610461E-06  -4.52341356E-06   5.34041327E-35
   5.00000000E-01   1.50000000E-01   5.00000000E-01  -2.29704989E-05   1.70689960E-05   7.56953649E-09   0.00000000E+00   8.68057498E-06   3.48844729E-06   5.75612899E-35
   6.00000000E-01   1.50000000E-01   5.00000000E-01  -7.74061515E-06   9.95506405E-06   2.11782075E-10   0.00000000E+00   2.35529654E-09   1.82632660E-06   7.60558631E-35
   7.00000000E-01   1.50000000E-01   5.00000000E-01  -1.37562193E-06   2.88152360E-06   1.95537188E-11   0.00000000E+00   9.61767719E-13   1.23582510E-07   8.85986671E-35
   8.00000000E-01   1.50000000E-01   5.00000000E-01  -3.61583900E-07   8.72515549E-07   4.75768354E-12   0.00000000E+00   8.31700001E-14   1.41800538E-08   9.11305080E-35
   9.00000000E-01   1.50000000E-01   5.00000000E-01  -1.66908738E-07   4.10604411E-07   2.16117014E-12   0.00000000E+00   2.63567269E-14   5.25071611E-09   9.20885045E-35
   1.00000000E+00   1.50000000E-01   5.00000000E-01  -6.63138950E-08   1.62706425E-07   8.52942064E-13   0.00000000E+00   8.89951387E-15   1.98477429E-09   9.32274839E-35
   1.10000000E+00   1.50000000E-01   5.00000000E-01  -3.02585562E-08   7.39894355E-08   3.88077657E-13   0.00000000E+00   3.77952713E-15   8.94200933E-10   9.37259863E-35
   1.20000000E+00   1.50000000E-01   5.00000000E-01  -1.03172847E-08   2.51689849E-08   1.32172114E-13   0.00000000E+00   1.24877227E-15   3.03662819E-10   9.41162023E-35
   1.30000000E+00   1.50000000E-01   5.00000000E-01  -3.53113287E-09   8.60265711E-09   4.52150349E-14   0.00000000E+00   4.20936530E-16   1.03777827E-10   9.43008921E-35
   1.40000000E+00   1.50000000E-01   5.00000000E-01  -1.66159827E-09   4.04529786E-09   2.12747932E-14   0.00000000E+00   1.97019190E-16   4.88096868E-11   9.43577341E-35
   1.50000000E+00   1.50000000E-01   5.00000000E-01  -6.61501103E-10   1.61007852E-09   8.47110238E-15   0.00000000E+00   7.83671907E-17   1.94309369E-11   9.44008292E-35
   1.60000000E+00   1.50000000E-01   5.00000000E-01  -2.42561601E-10   5.90353683E-10   3.10689935E-15   0.00000000E+00   2.87348322E-17   7.12550534E-12   9.44271298E-35
   1.70000000E+00   1.50000000E-01   5.00000000E-01  -9.08331411E-11   2.21079491E-10   1.16374611E-15   0.00000000E+00   1.07666452E-17   2.66863731E-12   9.44404245E-35
   1.80000000E+00   1.50000000E-01   5.00000000E-01  -2.70447567E-11   6.58319167E-11   3.46619588E-16   0.00000000E+00   3.20792752E-18   7.94705426E-13   9.44496287E-35
   1.90000000E+00   1.50000000E-01   5.00000000E-01  -7.31740742E-12   1.78157362E-11   9.38616078E-17   0.00000000E+00   8.72181102E-19   2.15083822E-13   9.44536253E-35
   2.00000000E+00   1.50000000E-01   5.00000000E-01  -1.47301374E-12   3.58877275E-12   1.89006754E-17   0.00000000E+00   1.72308789E-19   4.33359980E-14   9.44559123E-35
   2.10000000E+00   1.50000000E-01   5.00000000E-01  -2.29169711E-13   5.60266021E-13   2.96657076E-18   0.00000000E+00   2.84222348E-20   6.77401334E-15   9.44564656E-35
   2.20000000E+00   1.50000000E-01   5.00000000E-01  -4.46257030E-14   1.11040626E-13   6.21736486E-19   0.00000000E+00   5.32916988E-21   1.35117549E-15   9.44564806E-35
   2.30000000E+00   1.50000000E-01   5.00000000E-01  -1.42085276E-14   3.72096605E-14   2.30930541E-19   0.00000000E+00   5.32916634E-21   4.60759721E-16   9.44564178E-35
   2.40000000E+00   1.50000000E-01   5.00000000E-01  -4.37570774E-15   1.31366100E-14   1.06583629E-19   0.00000000E+00   1.77639382E-21   1.69574554E-16   9.44566861E-35
   2.50000000E+00   1.50000000E-01   5.00000000E-01  -2.19638485E-15   7.74897668E-15   7.10556754E-20   0.00000000E+00   3.55278377E-21   1.04114328E-16   9.44565829E-35
   2.60000000E+00   1.50000000E-01   5.00000000E-01  -1.74947166E-15   6.93298727E-15   5.32917274E-20   0.00000000E+00   1.77639091E-21   9.53033724E-17   9.44565312E-35
   2.70000000E+00   1.50000000E-01   5.00000000E-01  -1.54271591E-15   6.58293711E-15   3.55277517E-20   0.00000000E+00   1.77638759E-21   9.16793633E-17   9.44563544E-35
   2.80000000E+00   1.50000000E-01   5.00000000E-01  -1.42299499E-15   6.36337247E-15   7.10554684E-20   0.00000000E+00   3.55277342E-21   8.92989599E-17   9.44563078E-35
   2.90000000E+00   1.50000000E-01   5.00000000E-01  -1.36650838E-15   6.30502153E-15   5.32916297E-20   0.00000000E+00   1.77638766E-21   8.88371467E-17   9.44563581E-35
   2.97500000E+00   1.50000000E-01   5.00000000E-01  -1.34590328E-15   6.32536558E-15   5.32916668E-20   0.00000000E+00  -1.77635956E-21   8.92457781E-17   9.44564240E-35
   2.50000000E-02   2.00000000E-01   5.00000000E-01  -5.38255108E-07  -4.24610714E-06   2.62068736E-07   2.70780156E-08   1.18217590E-06  -2.43247549E-06   8.94540788E-35
   1.00000000E-01   2.00000000E-01   5.00000000E-01  -8.77209801E-07  -2.76126700E-07   9.84179679E-08   0.00000000E+00   3.03810594E-06  -3.37849004E-06   6.39035788E-35
   2.00000000E-01   2.00000000E-01   5.00000000E-01  -9.95494164E-07  -2.27929483E-06   1.06453901E-07   0.00000000E+00   2.96546560E-06  -2.93442975E-06   7.37037421E-35
   3.00000000E-01   2.00000000E-01   5.00000000E-01  -3.56886150E-06  -1.56308431E-06   4.42322649E-08   0.00000000E+00   5.16962524E-06  -4.26217970E-06   5.76000244E-35
   4.00000000E-01   2.00000000E-01   5.00000000E-01  -1.29029332E-05   8.15143889E-06   9.43759853E-09   0.00000000E+00   1.16220160E-05  -5.14944824E-06   5.04090841E-35
   5.00000000E-01   2.00000000E-01   5.00000000E-01  -2.05340679E-05   1.64993595E-05   3.77903776E-09   0.00000000E+00   2.13059655E-06   7.82693633E-06   5.76137821E-35
   6.00000000E-01   2.00000000E-01   5.00000000E-01  -6.69476159E-06   9.36353237E-06   1.30037875E-10   0.00000000E+00   3.05923225E-10   1.90740962E-06   7.50893373E-35
   7.00000000E-01   2.00000000E-01   5.00000000E-01  -1.62633626E-06   3.44792906E-06   2.28004208E-11   0.00000000E+00   1.04273176E-12   1.68192897E-07   8.62012623E-35
   8.00000000E-01   2.00000000E-01   5.00000000E-01  -4.78049214E-07   1.14735627E-06   6.32627081E-12   0.00000000E+00   1.24354355E-13   2.09429466E-08   9.10741637E-35
   9.00000000E-01   2.00000000E-01   5.00000000E-01  -1.53440517E-07   3.75671502E-07   1.98744161E-12   0.00000000E+00   2.47926504E-14   4.91914739E-09   9.29326226E-35
   1.00000000E+00   2.00000000E-01   5.00000000E-01  -5.55209493E-08   1.35819675E-07   7.13443788E-13   0.00000000E+00   7.35261624E-15   1.66337510E-09   9.37243350E-35
   1.10000000E+00   2.00000000E-01   5.00000000E-01  -1.91099056E-08   4.66332946E-08   2.44891684E-13   0.00000000E+00   2.34854673E-15   5.63845630E-10   9.40597853E-35
   1.20000000E+00   2.00000000E-01   5.00000000E-01  -7.27605823E-09   1.77285707E-08   9.31640835E-14   0.00000000E+00   8.72053953E-16   2.13967820E-10   9.42490657E-35
   1.30000000E+00   2.00000000E-01   5.00000000E-01  -2.22204920E-09   5.40983539E-09   2.84472630E-14   0.00000000E+00   2.63922308E-16   6.52816827E-11   9.43658949E-35
   1.40000000E+00   2.00000000E-01   5.00000000E-01  -4.87447020E-10   1.18635366E-09   6.24164312E-15   0.00000000E+00   5.77310035E-17   1.43178601E-11   9.44247080E-35
   1.50000000E+00   2.00000000E-01   5.00000000E-01  -1.26766229E-10   3.08507064E-10   1.62364715E-15   0.00000000E+00   1.50139361E-17   3.72376862E-12   9.44446062E-35
   1.60000000E+00   2.00000000E-01   5.00000000E-01  -3.44181743E-11   8.37678151E-11   4.40985873E-16   0.00000000E+00   4.07839992E-18   1.01118055E-12   9.44520481E-35
   1.70000000E+00   2.00000000E-01   5.00000000E-01  -1.37814737E-11   3.35467198E-11   1.76639654E-16   0.00000000E+00   1.63423655E-18   4.04971181E-13   9.44540408E-35
   1.80000000E+00   2.00000000E-01   5.00000000E-01  -6.37123395E-12   1.55115271E-11   8.16945708E-17   0.00000000E+00   7.58503625E-19   1.87264030E-13   9.44546268E-35
   1.90000000E+00   2.00000000E-01   5.00000000E-01  -2.24145590E-12   5.45879864E-12   2.87594948E-17   0.00000000E+00   2.68232472E-19   6.59085376E-14   9.44556313E-35
   2.00000000E+00   2.00000000E-01   5.00000000E-01  -8.04222101E-13   1.95984373E-12   1.03385372E-17   0.00000000E+00   9.77009527E-20   2.36681624E-14   9.44560019E-35
   2.10000000E+00   2.00000000E-01   5.00000000E-01  -2.98578536E-13   7.28757438E-13   3.83698470E-18   0.00000000E+00   3.73040179E-20   8.80591542E-15   9.44560470E-35
   2.20000000E+00   2.00000000E-01   5.00000000E-01  -7.70188258E-14   1.89165383E-13   1.01254758E-18   0.00000000E+00   8.88199635E-21   2.29118201E-15   9.44569755E-35
   2.30000000E+00   2.00000000E-01   5.00000000E-01  -2.09058015E-14   5.26420614E-14   3.01988265E-19   0.00000000E+00   5.32920467E-21   6.43448172E-16   9.44570972E-35
   2.40000000E+00   2.00000000E-01   5.00000000E-01  -1.00685476E-14   2.62797389E-14   1.42111216E-19   0.00000000E+00   3.55278039E-21   3.25203753E-16   9.44564930E-35
   2.50000000E+00   2.00000000E-01   5.00000000E-01  -4.70966103E-15   1.32757699E-14   1.06583465E-19   0.00000000E+00   1.77639108E-21   1.68366346E-16   9.44565400E-35
   2.60000000E+00   2.00000000E-01   5.00000000E-01  -2.25855297E-15   7.39991982E-15   5.32917864E-20   0.00000000E+00   1.77639288E-21   9.77549002E-17   9.44566358E-35
   2.70000000E+00   2.00000000E-01   5.00000000E-01  -1.36880984E-15   5.34854316E-15   5.32918047E-20   0.00000000E+00   1.77639349E-21   7.33828151E-17   9.44566682E-35
   2.80000000E+00   2.00000000E-01   5.00000000E-01  -1.14570849E-15   5.10518205E-15   5.32918548E-20   0.00000000E+00   3.55279032E-21   7.15887249E-17   9.44567570E-35
   2.90000000E+00   2.00000000E-01   5.00000000E-01  -1.20273154E-15   5.58639941E-15   7.10557035E-20   0.00000000E+00   1.77639259E-21   7.87119555E-17   9.44566203E-35
   2.97500000E+00   2.00000000E-01   5.00000000E-01  -1.19953649E-15   5.65869319E-15   3.55278178E-20   0.00000000E+00   3.55278178E-21   7.98842984E-17   9.44565302E-35
   2.50000000E-02   2.50000000E-01   5.00000000E-01  -5.32773184E-07  -6.12902383E-06   3.80522707E-07   6.25156615E-08   9.23258140E-07  -2.40626077E-06   1.14026198E-34
   1.00000000E-01   2.50000000E-01   5.00000000E-01  -5.26562266E-06   4.63102508E-06   4.12502868E-09   0.00000000E+00   1.58763811E-06   1.04730737E-06   5.56528888E-35
   2.00000000E-01   2.50000000E-01   5.00000000E-01  -5.89399463E-06   5.27990711E-06   2.02769413E-09   0.00000000E+00   1.01868777E-06   1.63041470E-06   5.53533628E-35
   3.00000000E-01   2.50000000E-01   5.00000000E-01  -1.70183405E-05   1.26631012E-05   7.48680921E-09   0.00000000E+00   7.40553218E-06   2.10812551E-06   5.22701879E-35
   4.00000000E-01   2.50000000E-01   5.00000000E-01  -1.96470877E-05   1.57511549E-05   3.54694429E-09   0.00000000E+00   2.36927052E-06   6.28632484E-06   5.72207994E-35
   5.00000000E-01   2.50000000E-01   5.00000000E-01  -1.01915624E-05   1.28749764E-05   2.09021324E-10   0.00000000E+00   6.51169037E-10   2.83156906E-06   6.79499227E-35
   6.00000000E-01   2.50000000E-01   5.00000000E-01  -3.70237312E-06   7.29932522E-06   5.62692571E-11   0.00000000E+00   4.02360162E-12   5.14716702E-07   7.93878531E-35
   7.00000000E-01   2.50000000E-01   5.00000000E-01  -1.34079169E-06   3.21240630E-06   1.87210026E-11   0.00000000E+00   6.39584996E-13   8.00710753E-08   8.71073189E-35
   8.00000000E-01   2.50000000E-01   5.00000000E-01  -4.66462188E-07   1.15998085E-06   6.20359033E-12   0.00000000E+00   1.16919255E-13   1.69425093E-08   9.12376203E-35
   9.00000000E-01   2.50000000E-01   5.00000000E-01  -1.31947833E-07   3.26015525E-07   1.71111633E-12   0.00000000E+00   2.12366098E-14   4.08096938E-09   9.32813795E-35
   1.00000000E+00   2.50000000E-01   5.00000000E-01  -3.40275916E-08   8.33267108E-08   4.36895352E-13   0.00000000E+00   4.39942090E-15   1.01081903E-09   9.40377952E-35
   1.10000000E+00   2.50000000E-01   5.00000000E-01  -8.32112843E-09   2.02881797E-08   1.06553874E-13   0.00000000E+00   1.00422190E-15   2.44902251E-10   9.43022640E-35
   1.20000000E+00   2.50000000E-01   5.00000000E-01  -1.94454174E-09   4.73385155E-09   2.48897797E-14   0.00000000E+00   2.30793835E-16   5.71238589E-11   9.44012817E-35
   1.30000000E+00   2.50000000E-01   5.00000000E-01  -6.03526179E-10   1.46861693E-09   7.72568743E-15   0.00000000E+00   7.13959198E-17   1.77245275E-11   9.44296670E-35
   1.40000000E+00   2.50000000E-01   5.00000000E-01  -1.92858231E-10   4.69268684E-10   2.46927492E-15   0.00000000E+00   2.28146481E-17   5.66416111E-12   9.44437320E-35
   1.50000000E+00   2.50000000E-01   5.00000000E-01  -6.48491187E-11   1.57800258E-10   8.30494759E-16   0.00000000E+00   7.67881263E-18   1.90480143E-12   9.44500718E-35
   1.60000000E+00   2.50000000E-01   5.00000000E-01  -2.20661367E-11   5.36998037E-11   2.82684935E-16   0.00000000E+00   2.61653204E-18   6.48235384E-13   9.44532188E-35
   1.70000000E+00   2.50000000E-01   5.00000000E-01  -8.16800002E-12   1.98800911E-11   1.04662827E-16   0.00000000E+00   9.68113390E-19   2.39990586E-13   9.44546134E-35