 TITLE = "Mineral Rate (mol/m^3/sec)" 
VARIABLES = "X"          "Y"              "Z"            "Calcite"        "Gypsum"         "Ferrihydrite"   "Jarosite"       "Gibbsite"       "Siderite"       "TracerMineral" 
 ZONE I=          31 , J=          41 , K=           1  F=POINT
   2.50000000E-02   1.25000000E-02   5.00000000E-01   0.00000000E+00   0.00000000E+00   1.54238346E-10   4.34415563E-11   4.50531666E-08   0.00000000E+00   1.14368588E-34
   1.00000000E-01   1.25000000E-02   5.00000000E-01   0.00000000E+00  -1.84809487E-09   3.57020138E-10   0.00000000E+00   4.02679836E-08  -1.06306252E-07   5.09717306E-35
   2.00000000E-01   1.25000000E-02   5.00000000E-01   0.00000000E+00  -7.83042186E-11   2.23978644E-12   0.00000000E+00   1.17766909E-10  -1.91846603E-09   3.72821954E-35
   3.00000000E-01   1.25000000E-02   5.00000000E-01   0.00000000E+00  -1.76668334E-11   6.50647639E-13   0.00000000E+00   1.62349670E-11  -5.32698065E-10   2.73651391E-35
   4.00000000E-01   1.25000000E-02   5.00000000E-01   0.00000000E+00   1.58268136E-09   4.35072024E-13   0.00000000E+00   1.92735914E-11   1.01187246E-08   2.17346929E-35
   5.00000000E-01   1.25000000E-02   5.00000000E-01  -2.84441315E-07   2.61355390E-07   1.54223076E-11   0.00000000E+00   4.97404927E-11   1.49416757E-07   5.97862668E-36
   6.00000000E-01   1.25000000E-02   5.00000000E-01  -1.12769195E-08   2.30822267E-08   1.35202502E-13   0.00000000E+00   2.28277467E-15   1.32807633E-09   5.34130295E-35
   7.00000000E-01   1.25000000E-02   5.00000000E-01  -6.93733234E-10   1.67054803E-09   8.78680607E-15   0.00000000E+00   8.12381810E-17   2.71934879E-11   8.02724539E-35
   8.00000000E-01   1.25000000E-02   5.00000000E-01  -2.22185475E-11   5.46404103E-11   2.83945796E-16   0.00000000E+00   2.62271063E-18   6.76985827E-13   9.03226223E-35
   9.00000000E-01   1.25000000E-02   5.00000000E-01  -5.41528672E-13   1.32624048E-12   6.93512379E-18   0.00000000E+00   6.43106718E-20   1.59643943E-14   9.24218751E-35
   1.00000000E+00   1.25000000E-02   5.00000000E-01  -1.19097731E-14   2.90627075E-14   1.58090786E-19   0.00000000E+00   1.75656429E-21   3.49644122E-16   9.34022855E-35
   1.10000000E+00   1.25000000E-02   5.00000000E-01  -2.42575801E-16   5.87850075E-16   0.00000000E+00   0.00000000E+00   1.76558064E-21   7.07997838E-18   9.38817143E-35
   1.20000000E+00   1.25000000E-02   5.00000000E-01  -3.90268930E-18   7.25958597E-18   1.77063072E-20   0.00000000E+00   1.77063072E-21   7.08252290E-20   9.41502436E-35
   1.30000000E+00   1.25000000E-02   5.00000000E-01   1.77363411E-19  -2.50525293E-18  -2.22491919E-23   0.00000000E+00   1.77363411E-21  -5.32939910E-20   9.43099436E-35
   1.40000000E+00   1.25000000E-02   5.00000000E-01   3.55071783E-19  -1.98322672E-18  -2.20598192E-23   0.00000000E+00   0.00000000E+00  -1.77639422E-20   9.44016570E-35
   1.50000000E+00   1.25000000E-02   5.00000000E-01   3.55203307E-19  -1.62728913E-18  -7.32918851E-24   0.00000000E+00   3.55203307E-21  -1.77636685E-20   9.44366248E-35
   1.60000000E+00   1.25000000E-02   5.00000000E-01   1.77625587E-19  -1.25370760E-18  -1.46408617E-23   0.00000000E+00  -3.55271913E-21  -1.77635689E-20   9.44493511E-35
   1.70000000E+00   1.25000000E-02   5.00000000E-01   1.77634013E-19  -9.78803166E-19  -7.31737888E-24   0.00000000E+00  -1.77635956E-21  -1.77635339E-20   9.44538316E-35
   1.80000000E+00   1.25000000E-02   5.00000000E-01   0.00000000E+00  -7.86339737E-19  -1.46326583E-23   0.00000000E+00   0.00000000E+00  -1.77635214E-20   9.44555022E-35
   1.90000000E+00   1.25000000E-02   5.00000000E-01   1.77637924E-19  -7.40371291E-19  -7.31616142E-24   0.00000000E+00   3.55275849E-21  -1.77635192E-20   9.44559111E-35
   2.00000000E+00   1.25000000E-02   5.00000000E-01   1.77638257E-19  -7.85228869E-19   0.00000000E+00   0.00000000E+00   1.77638257E-21  -1.77635181E-20   9.44560877E-35
   2.10000000E+00   1.25000000E-02   5.00000000E-01   1.77638465E-19  -8.33570850E-19   0.00000000E+00   0.00000000E+00   1.77638465E-21  -1.77635172E-20   9.44561987E-35
   2.20000000E+00   1.25000000E-02   5.00000000E-01   1.77638751E-19  -8.46708103E-19  -7.31611435E-24   0.00000000E+00  -1.77635956E-21  -1.77635159E-20   9.44563507E-35
   2.30000000E+00   1.25000000E-02   5.00000000E-01   1.77638736E-19  -8.42230026E-19   0.00000000E+00   0.00000000E+00  -1.77635956E-21   0.00000000E+00   9.44563426E-35
   2.40000000E+00   1.25000000E-02   5.00000000E-01   1.77638422E-19  -8.42128224E-19  -1.46332332E-23   0.00000000E+00  -1.77635956E-21  -1.77635211E-20   9.44561758E-35
   2.50000000E+00   1.25000000E-02   5.00000000E-01   1.77638329E-19  -8.42857235E-19   1.77638329E-20   0.00000000E+00   0.00000000E+00   0.00000000E+00   9.44561260E-35
   2.60000000E+00   1.25000000E-02   5.00000000E-01   1.77638473E-19  -7.94318635E-19  -7.31679041E-24   0.00000000E+00   1.77638473E-21  -1.77635214E-20   9.44562027E-35
   2.70000000E+00   1.25000000E-02   5.00000000E-01   0.00000000E+00  -5.81884611E-19   0.00000000E+00   0.00000000E+00   0.00000000E+00  -1.77635193E-20   9.44565049E-35
   2.80000000E+00   1.25000000E-02   5.00000000E-01   0.00000000E+00  -5.36924336E-19  -7.31670780E-24   0.00000000E+00   0.00000000E+00  -1.77635187E-20   9.44565841E-35
   2.90000000E+00   1.25000000E-02   5.00000000E-01   0.00000000E+00  -4.99587130E-19   0.00000000E+00   0.00000000E+00  -1.77635956E-21   0.00000000E+00   9.44565077E-35
   2.97500000E+00   1.25000000E-02   5.00000000E-01   0.00000000E+00  -4.72933002E-19   1.77638764E-20   0.00000000E+00   1.77638764E-21   1.77638764E-20   9.44563571E-35
   2.50000000E-02   5.00000000E-02   5.00000000E-01   0.00000000E+00  -1.78534179E-07   2.40601979E-10   3.12171057E-11   3.79312680E-08   0.00000000E+00   8.36974860E-35
   1.00000000E-01   5.00000000E-02   5.00000000E-01   0.00000000E+00  -4.13350419E-08   1.12681321E-09   0.00000000E+00   1.22318919E-07  -3.20179932E-07   4.81188146E-35
   2.00000000E-01   5.00000000E-02   5.00000000E-01   0.00000000E+00  -3.02533425E-09   2.74568664E-10   0.00000000E+00   1.36585256E-08  -9.34852552E-08   4.35384916E-35
   3.00000000E-01   5.00000000E-02   5.00000000E-01   0.00000000E+00  -1.63180905E-09   7.64517729E-11   0.00000000E+00   1.81900717E-09  -4.09044855E-08   3.96577664E-35
   4.00000000E-01   5.00000000E-02   5.00000000E-01   0.00000000E+00  -2.41284035E-11   3.97821664E-12   0.00000000E+00   6.74350254E-11  -2.84310603E-09   4.04713879E-35
   5.00000000E-01   5.00000000E-02   5.00000000E-01   0.00000000E+00   1.08163322E-08   1.60969854E-12   0.00000000E+00   7.51296587E-11   7.09859764E-08   2.54560140E-35
   6.00000000E-01   5.00000000E-02   5.00000000E-01  -2.25401670E-07   2.03923845E-07   1.16618995E-11   0.00000000E+00   2.68744323E-11   1.00760062E-07   8.56610956E-36
   7.00000000E-01   5.00000000E-02   5.00000000E-01  -6.83752517E-09   1.31630919E-08   8.13654088E-14   0.00000000E+00   9.73386402E-16   6.90245964E-10   6.81859606E-35
   8.00000000E-01   5.00000000E-02   5.00000000E-01  -1.40382446E-10   3.32200249E-10   1.77679805E-15   0.00000000E+00   1.62800325E-17   5.38874453E-12   8.43397085E-35
   9.00000000E-01   5.00000000E-02   5.00000000E-01  -2.65065465E-12   6.47636496E-12   3.38622415E-17   0.00000000E+00   3.11844466E-19   8.05447310E-14   9.01184415E-35
   1.00000000E+00   5.00000000E-02   5.00000000E-01  -4.31169260E-14   1.05412691E-13   5.76658725E-19   0.00000000E+00   5.24235205E-21   1.27076361E-15   9.29176849E-35
   1.10000000E+00   5.00000000E-02   5.00000000E-01  -6.38646657E-16   1.55510644E-15   1.76716641E-20   0.00000000E+00   0.00000000E+00   1.87319639E-17   9.39660347E-35
   1.20000000E+00   5.00000000E-02   5.00000000E-01  -9.22873769E-18   2.07399702E-17  -7.45229944E-24   0.00000000E+00   0.00000000E+00   2.48170584E-19   9.42574571E-35
   1.30000000E+00   5.00000000E-02   5.00000000E-01   0.00000000E+00  -1.69871423E-18  -2.21349872E-23   0.00000000E+00  -1.77635956E-21  -1.77642284E-20   9.43655430E-35
   1.40000000E+00   5.00000000E-02   5.00000000E-01   3.55112607E-19  -1.96434587E-18  -2.20378148E-23   0.00000000E+00   0.00000000E+00  -1.77638592E-20   9.44125106E-35
   1.50000000E+00   5.00000000E-02   5.00000000E-01   1.77594696E-19  -1.97869024E-18  -2.19957970E-23   0.00000000E+00   1.77594696E-21  -3.55274002E-20   9.44329250E-35
   1.60000000E+00   5.00000000E-02   5.00000000E-01   1.77616881E-19  -1.72621657E-18  -2.19709914E-23   0.00000000E+00   0.00000000E+00  -1.77636058E-20   9.44447218E-35
   1.70000000E+00   5.00000000E-02   5.00000000E-01   1.77630357E-19  -1.30070296E-18  -7.31863089E-24   0.00000000E+00   1.77630357E-21  -1.77635482E-20   9.44518873E-35
   1.80000000E+00   5.00000000E-02   5.00000000E-01   1.77636077E-19  -9.65966948E-19   0.00000000E+00   0.00000000E+00   1.77636077E-21  -1.77635244E-20   9.44549288E-35
   1.90000000E+00   5.00000000E-02   5.00000000E-01   1.77636489E-19  -1.00789442E-18  -7.31658837E-24   0.00000000E+00   0.00000000E+00  -1.77635250E-20   9.44551480E-35
   2.00000000E+00   5.00000000E-02   5.00000000E-01   0.00000000E+00  -9.77217392E-19  -7.31609122E-24   0.00000000E+00  -3.55271912E-21  -1.77635187E-20   9.44558561E-35
   2.10000000E+00   5.00000000E-02   5.00000000E-01   1.77638499E-19  -9.69537681E-19  -7.31581414E-24   0.00000000E+00   0.00000000E+00  -1.77635149E-20   9.44562164E-35
   2.20000000E+00   5.00000000E-02   5.00000000E-01   1.77638380E-19  -9.59549455E-19  -7.31613239E-24   0.00000000E+00   0.00000000E+00  -1.77635187E-20   9.44561530E-35
   2.30000000E+00   5.00000000E-02   5.00000000E-01   1.77638620E-19  -9.19293165E-19   0.00000000E+00   0.00000000E+00   1.77638620E-21  -1.77635163E-20   9.44562808E-35
   2.40000000E+00   5.00000000E-02   5.00000000E-01   1.77638967E-19  -8.77104452E-19  -7.31599680E-24   0.00000000E+00  -1.77635956E-21   0.00000000E+00   9.44564655E-35
   2.50000000E+00   5.00000000E-02   5.00000000E-01   1.77639010E-19  -8.18123416E-19  -7.31627815E-24   0.00000000E+00   0.00000000E+00   0.00000000E+00   9.44564880E-35
   2.60000000E+00   5.00000000E-02   5.00000000E-01   1.77639111E-19  -6.82427240E-19   3.55278222E-20   0.00000000E+00   1.77639111E-21  -1.77635181E-20   9.44565420E-35
   2.70000000E+00   5.00000000E-02   5.00000000E-01   1.77639149E-19  -5.48360703E-19   0.00000000E+00   0.00000000E+00  -1.77635956E-21   0.00000000E+00   9.44565621E-35
   2.80000000E+00   5.00000000E-02   5.00000000E-01   0.00000000E+00  -4.66734930E-19   0.00000000E+00   0.00000000E+00  -1.77635956E-21  -1.77635183E-20   9.44566889E-35
   2.90000000E+00   5.00000000E-02   5.00000000E-01   0.00000000E+00  -3.14509944E-19   0.00000000E+00   0.00000000E+00   0.00000000E+00  -1.77635207E-20   9.44566417E-35
   2.97500000E+00   5.00000000E-02   5.00000000E-01   1.77639017E-19  -2.79548819E-19   0.00000000E+00   0.00000000E+00   1.77639017E-21   0.00000000E+00   9.44564919E-35
   2.50000000E-02   1.00000000E-01   5.00000000E-01   0.00000000E+00   0.00000000E+00   9.67634240E-09   1.91713683E-09  -2.30257695E-08   0.00000000E+00   1.26217852E-34
   1.00000000E-01   1.00000000E-01   5.00000000E-01   0.00000000E+00   0.00000000E+00   8.96522390E-11  -1.30108786E-11   6.41316022E-08   0.00000000E+00   1.11965488E-34
   2.00000000E-01   1.00000000E-01   5.00000000E-01   0.00000000E+00  -3.39799622E-08   1.32283748E-10   0.00000000E+00   3.93466086E-08   0.00000000E+00   1.01527166E-34
   3.00000000E-01   1.00000000E-01   5.00000000E-01   0.00000000E+00  -1.69645701E-09   9.14473018E-11   0.00000000E+00   7.94368385E-09   0.00000000E+00   1.01234136E-34
   4.00000000E-01   1.00000000E-01   5.00000000E-01   0.00000000E+00  -1.23357322E-09   5.47110641E-11   0.00000000E+00   1.22492651E-09  -3.06239053E-08   5.50351665E-35
   5.00000000E-01   1.00000000E-01   5.00000000E-01   0.00000000E+00   3.54021982E-10   1.09137477E-12   0.00000000E+00   4.70317860E-11   1.61984473E-09   3.77636339E-35
   6.00000000E-01   1.00000000E-01   5.00000000E-01   0.00000000E+00   9.53607101E-09   2.78419847E-12   0.00000000E+00   7.27152365E-11   8.61764215E-08   1.34073288E-35
   7.00000000E-01   1.00000000E-01   5.00000000E-01  -2.81433570E-07   2.51759488E-07   1.40463949E-11   0.00000000E+00   2.36775752E-11   1.10943533E-07   6.24404672E-35
   8.00000000E-01   1.00000000E-01   5.00000000E-01  -2.13499959E-09   4.08528417E-09   2.53840925E-14   0.00000000E+00   2.80831914E-16   2.08516119E-10   8.04042757E-35
   9.00000000E-01   1.00000000E-01   5.00000000E-01  -2.29190646E-11   5.37385804E-11   2.90004070E-16   0.00000000E+00   2.64200388E-18   8.68410802E-13   8.85775624E-35
   1.00000000E+00   1.00000000E-01   5.00000000E-01  -2.59316145E-13   6.30398400E-13   3.29911416E-18   0.00000000E+00   2.96745718E-20   7.86049734E-15   9.28173133E-35
   1.10000000E+00   1.00000000E-01   5.00000000E-01  -2.87989037E-15   7.01497031E-15   3.53996433E-20   0.00000000E+00  -1.77635957E-21   8.47998454E-17   9.41157576E-35
   1.20000000E+00   1.00000000E-01   5.00000000E-01  -3.31989213E-17   8.00130155E-17   0.00000000E+00   0.00000000E+00  -1.77635956E-21   9.58027236E-19   9.43360198E-35
   1.30000000E+00   1.00000000E-01   5.00000000E-01  -1.77590774E-19  -7.21545419E-19   0.00000000E+00   0.00000000E+00   0.00000000E+00  -1.77638864E-20   9.44089943E-35
   1.40000000E+00   1.00000000E-01   5.00000000E-01   1.77576728E-19  -1.38441817E-18  -1.46767332E-23   0.00000000E+00  -1.77635956E-21  -1.77637725E-20   9.44233711E-35
   1.50000000E+00   1.00000000E-01   5.00000000E-01   1.77604968E-19  -1.45938823E-18  -1.46562345E-23   0.00000000E+00  -1.77635956E-21  -1.77636564E-20   9.44383869E-35
   1.60000000E+00   1.00000000E-01   5.00000000E-01   1.77620286E-19  -1.49549250E-18  -1.46451415E-23   0.00000000E+00  -1.77635956E-21  -3.55271874E-20   9.44465325E-35
   1.70000000E+00   1.00000000E-01   5.00000000E-01   1.77627184E-19  -1.53424438E-18  -1.46398852E-23   0.00000000E+00   1.77627184E-21  -1.77635633E-20   9.44502003E-35
   1.80000000E+00   1.00000000E-01   5.00000000E-01   1.77631029E-19  -1.56857166E-18  -1.46373337E-23   0.00000000E+00   0.00000000E+00  -1.77635496E-20   9.44522444E-35
   1.90000000E+00   1.00000000E-01   5.00000000E-01   1.77634362E-19  -1.36107056E-18  -1.46346799E-23   0.00000000E+00   0.00000000E+00  -1.77635336E-20   9.44540169E-35
   2.00000000E+00   1.00000000E-01   5.00000000E-01   1.77638418E-19  -8.97239611E-19  -2.19472922E-23   0.00000000E+00  -3.55271913E-21  -1.77635142E-20   9.44561734E-35
   2.10000000E+00   1.00000000E-01   5.00000000E-01   1.77639118E-19  -7.47257685E-19  -7.31584161E-24   0.00000000E+00   0.00000000E+00   0.00000000E+00   9.44565455E-35
   2.20000000E+00   1.00000000E-01   5.00000000E-01   1.77638746E-19  -8.01032581E-19   0.00000000E+00   0.00000000E+00  -3.55271912E-21   0.00000000E+00   9.44563477E-35
   2.30000000E+00   1.00000000E-01   5.00000000E-01   0.00000000E+00  -8.33334618E-19  -7.31636764E-24   0.00000000E+00   1.77638543E-21  -1.77635192E-20   9.44562400E-35
   2.40000000E+00   1.00000000E-01   5.00000000E-01   1.77639646E-19  -7.29651274E-19   0.00000000E+00   0.00000000E+00  -1.77635956E-21  -1.77635103E-20   9.44568265E-35
   2.50000000E+00   1.00000000E-01   5.00000000E-01   1.77639610E-19  -5.80445247E-19  -7.31623828E-24   0.00000000E+00  -1.77635956E-21  -1.77635157E-20   9.44568074E-35
   2.60000000E+00   1.00000000E-01   5.00000000E-01   0.00000000E+00  -5.41598233E-19  -7.31680016E-24   0.00000000E+00   1.77639072E-21  -1.77635214E-20   9.44565210E-35
   2.70000000E+00   1.00000000E-01   5.00000000E-01   0.00000000E+00  -5.43387330E-19   1.77639061E-20   0.00000000E+00   1.77639061E-21   0.00000000E+00   9.44565151E-35
   2.80000000E+00   1.00000000E-01   5.00000000E-01   1.77639414E-19  -4.36821056E-19   0.00000000E+00   0.00000000E+00  -1.77635956E-21   0.00000000E+00   9.44567033E-35
   2.90000000E+00   1.00000000E-01   5.00000000E-01   0.00000000E+00  -3.23173218E-19   1.77639025E-20   0.00000000E+00  -3.55271912E-21   0.00000000E+00   9.44564962E-35
   2.97500000E+00   1.00000000E-01   5.00000000E-01   1.77638772E-19  -2.57314501E-19   0.00000000E+00   0.00000000E+00  -1.77635956E-21   0.00000000E+00   9.44563617E-35
   2.50000000E-02   1.50000000E-01   5.00000000E-01   0.00000000E+00   0.00000000E+00   1.54516218E-08   3.13865135E-09  -4.48292916E-08   0.00000000E+00   1.29487856E-34
   1.00000000E-01   1.50000000E-01   5.00000000E-01   0.00000000E+00   0.00000000E+00  -1.94814685E-10   1.58846126E-13   1.34614262E-08   0.00000000E+00   1.20210706E-34
   2.00000000E-01   1.50000000E-01   5.00000000E-01   0.00000000E+00   0.00000000E+00  -8.79681276E-11   0.00000000E+00   2.74311021E-08   0.00000000E+00   1.15098063E-34
   3.00000000E-01   1.50000000E-01   5.00000000E-01   0.00000000E+00   0.00000000E+00   9.87370683E-11   0.00000000E+00   1.36125921E-08   0.00000000E+00   1.15576391E-34
   4.00000000E-01   1.50000000E-01   5.00000000E-01   0.00000000E+00  -6.10528266E-10   3.45005747E-11   0.00000000E+00   1.61572280E-09   0.00000000E+00   9.04450011E-35
   5.00000000E-01   1.50000000E-01   5.00000000E-01   0.00000000E+00   2.96797374E-10   5.15173387E-12   0.00000000E+00   1.11354436E-10  -1.24209499E-10   3.61761388E-35
   6.00000000E-01   1.50000000E-01   5.00000000E-01   0.00000000E+00   9.88007448E-09   3.41713426E-12   0.00000000E+00   3.51965925E-11   7.08971503E-08   1.06514077E-35
   7.00000000E-01   1.50000000E-01   5.00000000E-01  -5.84031522E-08   5.81346558E-08   2.18185995E-12   0.00000000E+00   1.57711767E-12   1.26087550E-08   7.99318888E-35
   8.00000000E-01   1.50000000E-01   5.00000000E-01  -4.67856019E-10   9.39993911E-10   5.75801859E-15   0.00000000E+00   5.28619681E-17   2.72843343E-11   8.99383923E-35
   9.00000000E-01   1.50000000E-01   5.00000000E-01  -5.79968953E-12   1.36570562E-11   7.37523804E-17   0.00000000E+00   6.71103531E-19   1.88593533E-13   9.17346433E-35
   1.00000000E+00   1.50000000E-01   5.00000000E-01  -8.75054693E-14   2.12140035E-13   1.12071351E-18   0.00000000E+00   1.22578040E-20   2.59895214E-15   9.31125212E-35
   1.10000000E+00   1.50000000E-01   5.00000000E-01  -1.48377426E-15   3.60886460E-15   1.76179682E-20   0.00000000E+00   1.76179682E-21   4.35868533E-17   9.36805160E-35
   1.20000000E+00   1.50000000E-01   5.00000000E-01  -2.18148152E-17   5.12338227E-17   1.76973481E-20   0.00000000E+00   0.00000000E+00   6.01709835E-19   9.41026049E-35
   1.30000000E+00   1.50000000E-01   5.00000000E-01   1.77338512E-19  -1.98571486E-18  -1.48495145E-23   0.00000000E+00   1.77338512E-21  -1.77647585E-20   9.42967039E-35
   1.40000000E+00   1.50000000E-01   5.00000000E-01   5.32349690E-19  -3.30138449E-18  -2.95420648E-23   0.00000000E+00   0.00000000E+00  -5.32929415E-20   9.43559307E-35
   1.50000000E+00   1.50000000E-01   5.00000000E-01   5.32599304E-19  -2.82066533E-18  -1.47090722E-23   0.00000000E+00   0.00000000E+00  -1.77639568E-20   9.44001733E-35
   1.60000000E+00   1.50000000E-01   5.00000000E-01   5.32750148E-19  -2.56397215E-18  -2.20073971E-23   0.00000000E+00   1.77583383E-21  -3.55274862E-20   9.44269095E-35
   1.70000000E+00   1.50000000E-01   5.00000000E-01   5.32825970E-19  -2.37286753E-18  -2.19801974E-23   0.00000000E+00  -1.77635956E-21  -1.77636409E-20   9.44403485E-35
   1.80000000E+00   1.50000000E-01   5.00000000E-01   5.32878212E-19  -1.91066935E-18  -1.46402577E-23   0.00000000E+00  -3.55271913E-21  -1.77635645E-20   9.44496081E-35
   1.90000000E+00   1.50000000E-01   5.00000000E-01   1.77633616E-19  -1.47821888E-18  -1.46351281E-23   0.00000000E+00   0.00000000E+00  -1.77635359E-20   9.44536203E-35
   2.00000000E+00   1.50000000E-01   5.00000000E-01   1.77637925E-19  -1.02381655E-18  -7.31597596E-24   0.00000000E+00   0.00000000E+00  -1.77635166E-20   9.44559115E-35
   2.10000000E+00   1.50000000E-01   5.00000000E-01   0.00000000E+00  -7.89520278E-19   0.00000000E+00   0.00000000E+00   0.00000000E+00   0.00000000E+00   9.44564657E-35
   2.20000000E+00   1.50000000E-01   5.00000000E-01   1.77638996E-19  -7.01812063E-19   0.00000000E+00   0.00000000E+00   0.00000000E+00   0.00000000E+00   9.44564808E-35
   2.30000000E+00   1.50000000E-01   5.00000000E-01   1.77638878E-19  -6.79017836E-19   0.00000000E+00   0.00000000E+00   0.00000000E+00   1.77638878E-20   9.44564180E-35
   2.40000000E+00   1.50000000E-01   5.00000000E-01   1.77639382E-19  -5.05323977E-19   1.77639382E-20   0.00000000E+00  -1.77635956E-21  -1.77635172E-20   9.44566863E-35
   2.50000000E+00   1.50000000E-01   5.00000000E-01   1.77639188E-19  -5.06733008E-19   0.00000000E+00   0.00000000E+00   0.00000000E+00   0.00000000E+00   9.44565831E-35
   2.60000000E+00   1.50000000E-01   5.00000000E-01   1.77639091E-19  -5.16222619E-19  -7.31683279E-24   0.00000000E+00   0.00000000E+00   0.00000000E+00   9.44565314E-35
   2.70000000E+00   1.50000000E-01   5.00000000E-01   0.00000000E+00  -5.17250879E-19   0.00000000E+00   0.00000000E+00   1.77638759E-21  -1.77635242E-20   9.44563545E-35
   2.80000000E+00   1.50000000E-01   5.00000000E-01   1.77638671E-19  -4.95211706E-19   0.00000000E+00   0.00000000E+00   1.77638671E-21   0.00000000E+00   9.44563079E-35
   2.90000000E+00   1.50000000E-01   5.00000000E-01   1.77638766E-19  -4.34146889E-19   0.00000000E+00   0.00000000E+00  -1.77635956E-21  -1.77635232E-20   9.44563582E-35
   2.97500000E+00   1.50000000E-01   5.00000000E-01   1.77638889E-19  -3.38385249E-19  -7.31720746E-24   0.00000000E+00  -3.55271912E-21   0.00000000E+00   9.44564241E-35
   2.50000000E-02   2.00000000E-01   5.00000000E-01   0.00000000E+00   0.00000000E+00   1.46419885E-09   2.81384091E-10   7.64603806E-10   0.00000000E+00   1.16179449E-34
   1.00000000E-01   2.00000000E-01   5.00000000E-01   0.00000000E+00  -1.15952797E-07   2.57954008E-11   0.00000000E+00   5.33940191E-08   0.00000000E+00   7.63413426E-35
   2.00000000E-01   2.00000000E-01   5.00000000E-01   0.00000000E+00  -1.07041697E-08   1.42974423E-10   0.00000000E+00   2.98833378E-08   0.00000000E+00   8.38517346E-35
   3.00000000E-01   2.00000000E-01   5.00000000E-01   0.00000000E+00  -1.27627323E-09   5.84121165E-11   0.00000000E+00   4.26925022E-09   0.00000000E+00   7.10978757E-35
   4.00000000E-01   2.00000000E-01   5.00000000E-01   0.00000000E+00  -1.06338090E-09   4.14773141E-11   0.00000000E+00   7.89387681E-10  -2.72501319E-08   4.73548482E-35
   5.00000000E-01   2.00000000E-01   5.00000000E-01   0.00000000E+00   9.24981825E-09   1.87342626E-12   0.00000000E+00   7.99520091E-11   6.53276013E-08   2.49155862E-35
   6.00000000E-01   2.00000000E-01   5.00000000E-01  -5.15389294E-07   4.64338873E-07   2.66995731E-11   0.00000000E+00   7.76386724E-11   2.44886728E-07   1.44201267E-35
   7.00000000E-01   2.00000000E-01   5.00000000E-01  -4.76851583E-09   9.63087353E-09   5.73941023E-14   0.00000000E+00   9.60770815E-16   5.34656966E-10   7.85671199E-35
   8.00000000E-01   2.00000000E-01   5.00000000E-01  -7.14971827E-11   1.69287050E-10   9.05507948E-16   0.00000000E+00   8.29346878E-18   2.70396981E-12   8.95958858E-35
   9.00000000E-01   2.00000000E-01   5.00000000E-01  -1.14266262E-12   2.77702759E-12   1.45732813E-17   0.00000000E+00   1.34067223E-19   3.44808884E-14   9.25817408E-35
   1.00000000E+00   2.00000000E-01   5.00000000E-01  -1.90164528E-14   4.63267488E-14   2.28888838E-19   0.00000000E+00   1.76068337E-21   5.59703637E-16   9.36213104E-35
   1.10000000E+00   2.00000000E-01   5.00000000E-01  -3.09217078E-16   7.51118322E-16   0.00000000E+00   0.00000000E+00  -1.77635956E-21   9.03640877E-18   9.40304297E-35
   1.20000000E+00   2.00000000E-01   5.00000000E-01  -4.96892393E-18   9.92490407E-18  -7.46477995E-24   0.00000000E+00   0.00000000E+00   1.06338258E-19   9.42392330E-35
   1.30000000E+00   2.00000000E-01   5.00000000E-01   3.54927246E-19  -1.90862134E-18  -2.21387262E-23   0.00000000E+00   0.00000000E+00  -1.77642419E-20   9.43632296E-35
   1.40000000E+00   2.00000000E-01   5.00000000E-01   1.77578271E-19  -1.47844088E-18  -1.46754056E-23   0.00000000E+00   0.00000000E+00  -1.77637648E-20   9.44241917E-35
   1.50000000E+00   2.00000000E-01   5.00000000E-01   1.77616434E-19  -1.25393000E-18  -7.32377908E-24   0.00000000E+00   0.00000000E+00  -1.77636066E-20   9.44444842E-35
   1.60000000E+00   2.00000000E-01   5.00000000E-01   0.00000000E+00  -9.95195656E-19  -1.46372420E-23   0.00000000E+00   0.00000000E+00  -3.55270952E-20   9.44520179E-35
   1.70000000E+00   2.00000000E-01   5.00000000E-01   1.77634387E-19  -9.88597791E-19  -7.31711210E-24   0.00000000E+00   0.00000000E+00   0.00000000E+00   9.44540301E-35
   1.80000000E+00   2.00000000E-01   5.00000000E-01   1.77635501E-19  -1.06649504E-18  -1.46336545E-23   0.00000000E+00   0.00000000E+00  -1.77635270E-20   9.44546224E-35
   1.90000000E+00   2.00000000E-01   5.00000000E-01   0.00000000E+00  -9.86106569E-19  -1.46324357E-23   0.00000000E+00   1.77637396E-21  -1.77635194E-20   9.44556301E-35
   2.00000000E+00   2.00000000E-01   5.00000000E-01   1.77638095E-19  -9.30577637E-19   0.00000000E+00   0.00000000E+00  -1.77635956E-21  -1.77635185E-20   9.44560017E-35
   2.10000000E+00   2.00000000E-01   5.00000000E-01   1.77638180E-19  -8.89161788E-19  -7.31629649E-24   0.00000000E+00  -1.77635956E-21  -1.77635199E-20   9.44560471E-35
   2.20000000E+00   2.00000000E-01   5.00000000E-01   0.00000000E+00  -7.77585378E-19  -1.46306532E-23   0.00000000E+00   0.00000000E+00  -1.77635059E-20   9.44569758E-35
   2.30000000E+00   2.00000000E-01   5.00000000E-01   0.00000000E+00  -6.61942540E-19   0.00000000E+00   0.00000000E+00  -1.77635956E-21  -1.77635079E-20   9.44570975E-35
   2.40000000E+00   2.00000000E-01   5.00000000E-01   0.00000000E+00  -6.33019434E-19  -7.31686536E-24   0.00000000E+00   1.77639019E-21  -1.77635238E-20   9.44564932E-35
   2.50000000E+00   2.00000000E-01   5.00000000E-01   0.00000000E+00  -5.67700305E-19  -7.31663808E-24   0.00000000E+00   0.00000000E+00   0.00000000E+00   9.44565402E-35
   2.60000000E+00   2.00000000E-01   5.00000000E-01   0.00000000E+00  -5.57183351E-19   0.00000000E+00   0.00000000E+00   0.00000000E+00   0.00000000E+00   9.44566360E-35
   2.70000000E+00   2.00000000E-01   5.00000000E-01   1.77639349E-19  -4.95759644E-19   0.00000000E+00   0.00000000E+00   0.00000000E+00   1.77639349E-20   9.44566685E-35
   2.80000000E+00   2.00000000E-01   5.00000000E-01   0.00000000E+00  -3.08351329E-19   1.77639516E-20   0.00000000E+00   0.00000000E+00   1.77639516E-20   9.44567572E-35
   2.90000000E+00   2.00000000E-01   5.00000000E-01   0.00000000E+00  -1.82243278E-19   0.00000000E+00   0.00000000E+00   1.77639259E-21   1.77639259E-20   9.44566204E-35
   2.97500000E+00   2.00000000E-01   5.00000000E-01   0.00000000E+00  -1.24166487E-19   0.00000000E+00   0.00000000E+00   0.00000000E+00   0.00000000E+00   9.44565303E-35
   2.50000000E-02   2.50000000E-01   5.00000000E-01   0.00000000E+00   0.00000000E+00   2.29316813E-09   4.22193227E-10   4.10458939E-08   0.00000000E+00   1.16931524E-34
   1.00000000E-01   2.50000000E-01   5.00000000E-01   0.00000000E+00  -4.41718359E-08   1.87578251E-09   0.00000000E+00   1.99999623E-07  -5.22089538E-07   5.95079139E-35
   2.00000000E-01   2.50000000E-01   5.00000000E-01   0.00000000E+00  -4.98517486E-09   3.67030217E-10   0.00000000E+00   1.47235843E-08  -1.43067935E-07   4.49617032E-35
   3.00000000E-01   2.50000000E-01   5.00000000E-01   0.00000000E+00  -2.15124056E-09   8.96965490E-11   0.00000000E+00   1.89443288E-09  -5.30167510E-08   3.66756949E-35
   4.00000000E-01   2.50000000E-01   5.00000000E-01   0.00000000E+00   1.28271603E-09   8.82738173E-13   0.00000000E+00   2.65173061E-11   8.73397709E-09   2.64899353E-35
   5.00000000E-01   2.50000000E-01   5.00000000E-01  -2.03189487E-07   1.88840476E-07   1.10369830E-11   0.00000000E+00   3.94695820E-11   1.11503622E-07   5.38381273E-36
   6.00000000E-01   2.50000000E-01   5.00000000E-01  -2.63796525E-08   5.42576823E-08   3.13761535E-13   0.00000000E+00   5.91790785E-15   3.49053865E-09   5.23846587E-35
   7.00000000E-01   2.50000000E-01   5.00000000E-01  -7.55177384E-10   1.85525127E-09   9.56242233E-15   0.00000000E+00   9.01189105E-17   3.17030997E-11   8.02653108E-35
   8.00000000E-01   2.50000000E-01   5.00000000E-01  -1.47779606E-11   3.64969313E-11   1.88946868E-16   0.00000000E+00   1.74913321E-18   4.53102971E-13   8.96886702E-35
   9.00000000E-01   2.50000000E-01   5.00000000E-01  -2.51313558E-13   6.15787231E-13   3.21679962E-18   0.00000000E+00   2.97204313E-20   7.41075457E-15   9.29607543E-35
   1.00000000E+00   2.50000000E-01   5.00000000E-01  -4.07358329E-15   9.93275331E-15   5.30185129E-20   0.00000000E+00   1.76728376E-21   1.19574420E-16   9.39722749E-35
   1.10000000E+00   2.50000000E-01   5.00000000E-01  -6.42545080E-17   1.54981242E-16   0.00000000E+00   0.00000000E+00   3.54648151E-21   1.86190280E-18   9.42890277E-35
   1.20000000E+00   2.50000000E-01   5.00000000E-01  -7.10328260E-19   8.87650746E-19  -7.35534156E-24   0.00000000E+00  -1.77635956E-21   1.77530149E-20   9.43986037E-35
   1.30000000E+00   2.50000000E-01   5.00000000E-01   1.77587167E-19  -1.08899862E-18  -1.46691710E-23   0.00000000E+00   1.77587167E-21  -1.77637300E-20   9.44289216E-35
   1.40000000E+00   2.50000000E-01   5.00000000E-01   0.00000000E+00  -1.11737856E-18  -7.32451499E-24   0.00000000E+00   1.77614617E-21  -1.77636155E-20   9.44435179E-35
   1.50000000E+00   2.50000000E-01   5.00000000E-01   1.77626821E-19  -1.02496352E-18  -7.32007754E-24   0.00000000E+00   1.77626821E-21  -1.77635651E-20   9.44500069E-35
   1.60000000E+00   2.50000000E-01   5.00000000E-01   1.77632824E-19  -9.36703893E-19  -7.31792311E-24   0.00000000E+00   0.00000000E+00  -1.77635405E-20   9.44531990E-35
   1.70000000E+00   2.50000000E-01   5.00000000E-01   0.00000000E+00  -8.81533264E-19  -1.46340967E-23   0.00000000E+00   1.77635472E-21  -1.77635304E-20   9.44546070E-35