 TITLE = "Mineral Rate (mol/m^3/sec)" 
VARIABLES = "X"          "Y"              "Z"            "Calcite"        "Gypsum"         "Ferrihydrite"   "Jarosite"       "Gibbsite"       "Siderite"       "TracerMineral" 
 ZONE I=          31 , J=          41 , K=           1  F=POINT
   2.50000000E-02   1.25000000E-02   5.00000000E-01   0.00000000E+00   0.00000000E+00   1.01368243E-08   1.43093580E-09   6.40184663E-07  -7.88746404E-07   1.13989364E-34
   1.00000000E-01   1.25000000E-02   5.00000000E-01   0.00000000E+00   1.34123155E-07   1.58698200E-10   0.00000000E+00   1.22759653E-08   2.41058512E-07   5.02087827E-35
   2.00000000E-01   1.25000000E-02   5.00000000E-01  -2.22252474E-06   1.98095327E-06   1.15784589E-10   0.00000000E+00   6.00414701E-10   7.49079248E-07   4.72167783E-35
   3.00000000E-01   1.25000000E-02   5.00000000E-01  -2.11071870E-06   1.90990245E-06   1.22709997E-10   0.00000000E+00   1.04272865E-09   9.76075834E-07   3.65712289E-35
   4.00000000E-01   1.25000000E-02   5.00000000E-01  -2.51064826E-06   2.23180748E-06   2.62056407E-10   0.00000000E+00   1.06111510E-08   2.04863317E-06   2.40153768E-35
   5.00000000E-01   1.25000000E-02   5.00000000E-01  -7.65369222E-06   6.24686647E-06   4.49153193E-10   0.00000000E+00   4.56975327E-09   4.59484360E-06   3.36208586E-35
   6.00000000E-01   1.25000000E-02   5.00000000E-01  -2.33603644E-06   3.89453697E-06   3.13641922E-11   0.00000000E+00   2.68503548E-12   6.10586027E-07   6.19016673E-35
   7.00000000E-01   1.25000000E-02   5.00000000E-01  -4.64922541E-07   1.08607579E-06   6.08478196E-12   0.00000000E+00   1.47011853E-13   3.58922001E-08   8.17212502E-35
   8.00000000E-01   1.25000000E-02   5.00000000E-01  -4.42753062E-08   1.08984417E-07   5.70691902E-13   0.00000000E+00   6.85968714E-15   1.57409101E-09   9.04239527E-35
   9.00000000E-01   1.25000000E-02   5.00000000E-01  -3.41508733E-09   8.37310201E-09   4.37227898E-14   0.00000000E+00   4.14211549E-16   1.02626893E-10   9.24278789E-35
   1.00000000E+00   1.25000000E-02   5.00000000E-01  -3.59875719E-10   8.79187919E-10   4.60524452E-15   0.00000000E+00   4.25863738E-17   1.05946853E-11   9.34027973E-35
   1.10000000E+00   1.25000000E-02   5.00000000E-01  -4.25026618E-11   1.03628239E-10   5.43975684E-16   0.00000000E+00   5.01954842E-18   1.24839448E-12   9.38817646E-35
   1.20000000E+00   1.25000000E-02   5.00000000E-01  -4.57385216E-12   1.11421094E-11   5.85547609E-17   0.00000000E+00   5.43583659E-19   1.34343656E-13   9.41502479E-35
   1.30000000E+00   1.25000000E-02   5.00000000E-01  -3.93429736E-13   9.59246868E-13   5.05485724E-18   0.00000000E+00   4.43408530E-20   1.15790462E-14   9.43099435E-35
   1.40000000E+00   1.25000000E-02   5.00000000E-01  -2.32648721E-14   5.79313817E-14   3.01811016E-19   0.00000000E+00   3.55071783E-21   7.05829444E-16   9.44016566E-35
   1.50000000E+00   1.25000000E-02   5.00000000E-01  -1.76048818E-15   5.50867049E-15   3.55203307E-20   0.00000000E+00   1.77601654E-21   7.28344381E-17   9.44366244E-35
   1.60000000E+00   1.25000000E-02   5.00000000E-01  -5.81000744E-16   2.57415001E-15   3.55251175E-20   0.00000000E+00   1.77625587E-21   3.70704601E-17   9.44493507E-35
   1.70000000E+00   1.25000000E-02   5.00000000E-01  -4.79055729E-16   2.24760317E-15   1.77634013E-20   0.00000000E+00   0.00000000E+00   3.29688729E-17   9.44538312E-35
   1.80000000E+00   1.25000000E-02   5.00000000E-01  -4.25771826E-16   2.03234670E-15   1.77637155E-20   0.00000000E+00   1.77637155E-21   3.02516076E-17   9.44555019E-35
   1.90000000E+00   1.25000000E-02   5.00000000E-01  -3.82787908E-16   1.86235600E-15   1.77637924E-20   0.00000000E+00   0.00000000E+00   2.79957369E-17   9.44559108E-35
   2.00000000E+00   1.25000000E-02   5.00000000E-01  -3.50638019E-16   1.74538469E-15   1.77638257E-20   0.00000000E+00   0.00000000E+00   2.64681002E-17   9.44560874E-35
   2.10000000E+00   1.25000000E-02   5.00000000E-01  -3.22395254E-16   1.63178694E-15   0.00000000E+00   0.00000000E+00  -1.77635956E-21   2.50292598E-17   9.44561984E-35
   2.20000000E+00   1.25000000E-02   5.00000000E-01  -2.95573066E-16   1.52218646E-15   3.55277503E-20   0.00000000E+00   1.77638751E-21   2.36081900E-17   9.44563505E-35
   2.30000000E+00   1.25000000E-02   5.00000000E-01  -2.67863389E-16   1.41249441E-15   1.77638736E-20   0.00000000E+00   0.00000000E+00   2.21870781E-17   9.44563424E-35
   2.40000000E+00   1.25000000E-02   5.00000000E-01  -2.38733220E-16   1.29702694E-15   0.00000000E+00   0.00000000E+00   0.00000000E+00   2.06948762E-17   9.44561756E-35
   2.50000000E+00   1.25000000E-02   5.00000000E-01  -2.14398483E-16   1.20278912E-15   0.00000000E+00   0.00000000E+00  -3.55271912E-21   1.94513970E-17   9.44561259E-35
   2.60000000E+00   1.25000000E-02   5.00000000E-01  -1.90951521E-16   1.10961872E-15   1.77638473E-20   0.00000000E+00   1.77638473E-21   1.82434712E-17   9.44562025E-35
   2.70000000E+00   1.25000000E-02   5.00000000E-01  -1.66260925E-16   1.01147670E-15   1.77639041E-20   0.00000000E+00   3.55278083E-21   1.69645285E-17   9.44565048E-35
   2.80000000E+00   1.25000000E-02   5.00000000E-01  -1.42991412E-16   9.26033099E-16   1.77639190E-20   0.00000000E+00   1.77639190E-21   1.58276519E-17   9.44565839E-35
   2.90000000E+00   1.25000000E-02   5.00000000E-01  -1.22741907E-16   8.55420830E-16   3.55278094E-20   0.00000000E+00   1.77639047E-21   1.48683882E-17   9.44565076E-35
   2.97500000E+00   1.25000000E-02   5.00000000E-01  -1.14038386E-16   8.34280453E-16   3.55277527E-20   0.00000000E+00   1.77638764E-21   1.45841425E-17   9.44563570E-35
   2.50000000E-02   5.00000000E-02   5.00000000E-01   0.00000000E+00  -1.00034260E-06   3.00994716E-08   7.13979477E-10   1.35045188E-06  -1.83411969E-06   7.52723920E-35
   1.00000000E-01   5.00000000E-02   5.00000000E-01  -2.53215474E-06   2.29829803E-06   2.08587749E-09   0.00000000E+00   7.01936501E-07   5.77194918E-07   4.53019130E-35
   2.00000000E-01   5.00000000E-02   5.00000000E-01   0.00000000E+00   1.02193162E-07   1.53150556E-09   0.00000000E+00   5.23627814E-07  -2.78579681E-07   4.38147693E-35
   3.00000000E-01   5.00000000E-02   5.00000000E-01   0.00000000E+00   7.65209915E-08   1.27300023E-09   0.00000000E+00   4.55946352E-07  -3.46807412E-07   4.01083368E-35
   4.00000000E-01   5.00000000E-02   5.00000000E-01   0.00000000E+00   5.45360878E-08   1.72152894E-09   0.00000000E+00   8.56277134E-07  -1.39056265E-06   3.99112315E-35
   5.00000000E-01   5.00000000E-02   5.00000000E-01  -4.92059748E-08   1.64410312E-07   6.24808264E-10   0.00000000E+00   1.91438672E-07  -1.79672112E-07   2.78678325E-35
   6.00000000E-01   5.00000000E-02   5.00000000E-01  -7.72882340E-06   6.32596464E-06   4.75574233E-10   0.00000000E+00   5.04593538E-09   4.87839652E-06   3.55158871E-35
   7.00000000E-01   5.00000000E-02   5.00000000E-01  -6.16235526E-07   1.09125652E-06   8.25062678E-12   0.00000000E+00   6.34819114E-13   1.44124856E-07   6.97644846E-35
   8.00000000E-01   5.00000000E-02   5.00000000E-01  -5.01807506E-08   1.16968554E-07   6.33768023E-13   0.00000000E+00   8.06104649E-15   2.92405279E-09   8.44476073E-35
   9.00000000E-01   5.00000000E-02   5.00000000E-01  -4.68784408E-09   1.14437601E-08   5.98873690E-14   0.00000000E+00   5.71165276E-16   1.53176420E-10   9.01263411E-35
   1.00000000E+00   5.00000000E-02   5.00000000E-01  -3.20054993E-10   7.83427121E-10   4.09607833E-15   0.00000000E+00   3.79530573E-17   9.51305660E-12   9.29181239E-35
   1.10000000E+00   5.00000000E-02   5.00000000E-01  -1.87051334E-11   4.56455365E-11   2.39451103E-16   0.00000000E+00   2.20895851E-18   5.49950269E-13   9.39660559E-35
   1.20000000E+00   5.00000000E-02   5.00000000E-01  -1.40561960E-12   3.42504010E-12   1.80278205E-17   0.00000000E+00   1.64856176E-19   4.13052821E-14   9.42574580E-35
   1.30000000E+00   5.00000000E-02   5.00000000E-01  -1.17321895E-13   2.86920549E-13   1.52622458E-18   0.00000000E+00   1.41974379E-20   3.46870029E-15   9.43655427E-35
   1.40000000E+00   5.00000000E-02   5.00000000E-01  -1.08552707E-14   2.76569688E-14   1.59800673E-19   0.00000000E+00   3.55112607E-21   3.40197877E-16   9.44125102E-35
   1.50000000E+00   5.00000000E-02   5.00000000E-01  -1.51963318E-15   4.88243337E-15   3.55189391E-20   0.00000000E+00   1.77594696E-21   6.50529370E-17   9.44329246E-35
   1.60000000E+00   5.00000000E-02   5.00000000E-01  -5.90227877E-16   2.57091555E-15   3.55233762E-20   0.00000000E+00   1.77616881E-21   3.69087879E-17   9.44447214E-35
   1.70000000E+00   5.00000000E-02   5.00000000E-01  -4.74433000E-16   2.21513937E-15   1.77630357E-20   0.00000000E+00   0.00000000E+00   3.24353032E-17   9.44518870E-35
   1.80000000E+00   5.00000000E-02   5.00000000E-01  -4.20618503E-16   1.99742887E-15   1.77636077E-20   0.00000000E+00   0.00000000E+00   2.96474613E-17   9.44549285E-35
   1.90000000E+00   5.00000000E-02   5.00000000E-01  -3.80300060E-16   1.83862648E-15   0.00000000E+00   0.00000000E+00   0.00000000E+00   2.75336558E-17   9.44551477E-35
   2.00000000E+00   5.00000000E-02   5.00000000E-01  -3.46373594E-16   1.71598135E-15   3.55275642E-20   0.00000000E+00   3.55275642E-21   2.59884132E-17   9.44558558E-35
   2.10000000E+00   5.00000000E-02   5.00000000E-01  -3.19196541E-16   1.60931598E-15   0.00000000E+00   0.00000000E+00   0.00000000E+00   2.46206959E-17   9.44562162E-35
   2.20000000E+00   5.00000000E-02   5.00000000E-01  -2.95395608E-16   1.51605475E-15   1.77638380E-20   0.00000000E+00   5.32915139E-21   2.34660299E-17   9.44561528E-35
   2.30000000E+00   5.00000000E-02   5.00000000E-01  -2.66086946E-16   1.40076934E-15   1.77638620E-20   0.00000000E+00   0.00000000E+00   2.19916611E-17   9.44562806E-35
   2.40000000E+00   5.00000000E-02   5.00000000E-01  -2.33225460E-16   1.26700993E-15   3.55277935E-20   0.00000000E+00   1.77638967E-21   2.02508423E-17   9.44564653E-35
   2.50000000E+00   5.00000000E-02   5.00000000E-01  -2.04627759E-16   1.15172252E-15   1.77639010E-20   0.00000000E+00   1.77639010E-21   1.87409155E-17   9.44564878E-35
   2.60000000E+00   5.00000000E-02   5.00000000E-01  -1.81003665E-16   1.05855146E-15   1.77639111E-20   0.00000000E+00   0.00000000E+00   1.75152164E-17   9.44565418E-35
   2.70000000E+00   5.00000000E-02   5.00000000E-01  -1.58622811E-16   9.70975588E-16   1.77639149E-20   0.00000000E+00   1.77639149E-21   1.63783295E-17   9.44565619E-35
   2.80000000E+00   5.00000000E-02   5.00000000E-01  -1.34109870E-16   8.78249132E-16   1.77639387E-20   0.00000000E+00   1.77639387E-21   1.51171119E-17   9.44566888E-35
   2.90000000E+00   5.00000000E-02   5.00000000E-01  -1.13505230E-16   8.04439564E-16   0.00000000E+00   0.00000000E+00   1.77639299E-21   1.40867964E-17   9.44566415E-35
   2.97500000E+00   5.00000000E-02   5.00000000E-01  -1.06577986E-16   7.93513489E-16   0.00000000E+00   0.00000000E+00   0.00000000E+00   1.39624267E-17   9.44564917E-35
   2.50000000E-02   1.00000000E-01   5.00000000E-01   0.00000000E+00   0.00000000E+00   2.11317382E-07   6.53997057E-08  -6.23730674E-07  -7.31434810E-07   1.24444106E-34
   1.00000000E-01   1.00000000E-01   5.00000000E-01   0.00000000E+00  -2.61314885E-06   5.22293365E-08  -1.73851618E-12   7.71259915E-07  -7.49457780E-07   1.05814999E-34
   2.00000000E-01   1.00000000E-01   5.00000000E-01   0.00000000E+00  -1.17168861E-06   2.03537282E-09   0.00000000E+00   6.96486052E-07  -9.01291957E-07   9.72550014E-35
   3.00000000E-01   1.00000000E-01   5.00000000E-01   0.00000000E+00  -1.04700003E-06   3.66160299E-09   0.00000000E+00   1.03190681E-06  -1.48012675E-06   9.90106242E-35
   4.00000000E-01   1.00000000E-01   5.00000000E-01   0.00000000E+00  -2.94280578E-08   5.08230450E-09   0.00000000E+00   1.48162872E-06  -2.30658222E-06   5.35036126E-35
   5.00000000E-01   1.00000000E-01   5.00000000E-01   0.00000000E+00   1.98970061E-08   3.23324153E-09   0.00000000E+00   1.70136676E-06  -2.78267644E-06   3.67518797E-35
   6.00000000E-01   1.00000000E-01   5.00000000E-01  -4.64225605E-06   3.96744207E-06   6.97820231E-10   0.00000000E+00   1.32253557E-07   3.10515375E-06   2.30742486E-35
   7.00000000E-01   1.00000000E-01   5.00000000E-01  -3.62734573E-07   5.35851642E-07   5.90059272E-12   0.00000000E+00   2.15865084E-12   7.45594738E-08   6.52752350E-35
   8.00000000E-01   1.00000000E-01   5.00000000E-01  -2.86977325E-08   6.43140238E-08   3.59646321E-13   0.00000000E+00   3.95921805E-15   1.60597180E-09   8.05241166E-35
   9.00000000E-01   1.00000000E-01   5.00000000E-01  -2.39226450E-09   5.82508546E-09   3.05589125E-14   0.00000000E+00   2.87257589E-16   7.74768057E-11   8.85829092E-35
   1.00000000E+00   1.00000000E-01   5.00000000E-01  -1.24366288E-10   3.04780894E-10   1.59241058E-15   0.00000000E+00   1.47517833E-17   3.69148053E-12   9.28175046E-35
   1.10000000E+00   1.00000000E-01   5.00000000E-01  -4.97827475E-12   1.21475736E-11   6.37547616E-17   0.00000000E+00   5.91174080E-19   1.46340949E-13   9.41157632E-35
   1.20000000E+00   1.00000000E-01   5.00000000E-01  -3.09963588E-13   7.55871960E-13   3.97403892E-18   0.00000000E+00   3.72566149E-20   9.12247730E-15   9.43360196E-35
   1.30000000E+00   1.00000000E-01   5.00000000E-01  -2.68416024E-14   6.63990567E-14   3.55099381E-19   0.00000000E+00   0.00000000E+00   8.06910078E-16   9.44089939E-35
   1.40000000E+00   1.00000000E-01   5.00000000E-01  -3.16095076E-15   8.67160436E-15   7.10306912E-20   0.00000000E+00   0.00000000E+00   1.09884479E-16   9.44233707E-35
   1.50000000E+00   1.00000000E-01   5.00000000E-01  -7.48642469E-16   2.80589208E-15   1.77604968E-20   0.00000000E+00   1.77604968E-21   3.90908533E-17   9.44383865E-35
   1.60000000E+00   1.00000000E-01   5.00000000E-01  -4.91476791E-16   2.18508476E-15   1.77620286E-20   0.00000000E+00   0.00000000E+00   3.15631249E-17   9.44465321E-35
   1.70000000E+00   1.00000000E-01   5.00000000E-01  -4.39972714E-16   2.02566041E-15   1.77627184E-20   0.00000000E+00   1.77627184E-21   2.95926889E-17   9.44501999E-35
   1.80000000E+00   1.00000000E-01   5.00000000E-01  -4.10314933E-16   1.91948090E-15   1.77631029E-20   0.00000000E+00   3.55262057E-21   2.82966229E-17   9.44522441E-35
   1.90000000E+00   1.00000000E-01   5.00000000E-01  -3.72660787E-16   1.77865287E-15   0.00000000E+00   0.00000000E+00   1.77634362E-21   2.65563371E-17   9.44540166E-35
   2.00000000E+00   1.00000000E-01   5.00000000E-01  -3.13866141E-16   1.54030272E-15   1.77638418E-20   0.00000000E+00   0.00000000E+00   2.34660350E-17   9.44561732E-35
   2.10000000E+00   1.00000000E-01   5.00000000E-01  -2.70881702E-16   1.36089328E-15   1.77639118E-20   0.00000000E+00   1.77639118E-21   2.11212911E-17   9.44565453E-35
   2.20000000E+00   1.00000000E-01   5.00000000E-01  -2.56317415E-16   1.32021116E-15   0.00000000E+00   0.00000000E+00   1.77638746E-21   2.07304416E-17   9.44563474E-35
   2.30000000E+00   1.00000000E-01   5.00000000E-01  -2.34114574E-16   1.23885120E-15   1.77638543E-20   0.00000000E+00   0.00000000E+00   1.97356421E-17   9.44562398E-35
   2.40000000E+00   1.00000000E-01   5.00000000E-01  -2.02495430E-16   1.10740555E-15   1.77639646E-20   0.00000000E+00  -1.77635956E-21   1.79948962E-17   9.44568263E-35
   2.50000000E+00   1.00000000E-01   5.00000000E-01  -1.77273008E-16   1.00650603E-15   0.00000000E+00   0.00000000E+00   1.77639610E-21   1.66448315E-17   9.44568072E-35
   2.60000000E+00   1.00000000E-01   5.00000000E-01  -1.58622960E-16   9.37845478E-16   1.77639072E-20   0.00000000E+00   1.77639072E-21   1.57565856E-17   9.44565208E-35
   2.70000000E+00   1.00000000E-01   5.00000000E-01  -1.38906134E-16   8.66345699E-16   1.77639061E-20   0.00000000E+00  -1.77635956E-21   1.48506255E-17   9.44565150E-35
   2.80000000E+00   1.00000000E-01   5.00000000E-01  -1.16169392E-16   7.79481751E-16   0.00000000E+00   0.00000000E+00   0.00000000E+00   1.36782349E-17   9.44567031E-35
   2.90000000E+00   1.00000000E-01   5.00000000E-01  -9.71635555E-17   7.11266656E-16   0.00000000E+00   0.00000000E+00   0.00000000E+00   1.26834264E-17   9.44564960E-35
   2.97500000E+00   1.00000000E-01   5.00000000E-01  -8.98809947E-17   6.99719124E-16   0.00000000E+00   0.00000000E+00  -1.77635956E-21   1.25235334E-17   9.44563616E-35
   2.50000000E-02   1.50000000E-01   5.00000000E-01   0.00000000E+00   0.00000000E+00   0.00000000E+00   1.11820977E-07  -4.98370553E-07  -7.31380447E-07   1.27644391E-34
   1.00000000E-01   1.50000000E-01   5.00000000E-01   0.00000000E+00   0.00000000E+00   2.80604646E-07   7.50669386E-12  -8.22046720E-08  -7.31848000E-07   1.19108125E-34
   2.00000000E-01   1.50000000E-01   5.00000000E-01   0.00000000E+00   0.00000000E+00   2.32930401E-08   0.00000000E+00   4.45512522E-07  -7.34637764E-07   1.14326834E-34
   3.00000000E-01   1.50000000E-01   5.00000000E-01   0.00000000E+00   0.00000000E+00   2.18534946E-09   0.00000000E+00   6.16996675E-07  -8.89451662E-07   1.15021773E-34
   4.00000000E-01   1.50000000E-01   5.00000000E-01   0.00000000E+00  -2.39472972E-06   7.86381181E-09   0.00000000E+00   1.38245762E-06  -2.08920029E-06   8.62557020E-35
   5.00000000E-01   1.50000000E-01   5.00000000E-01   0.00000000E+00   1.91989333E-08   3.74857463E-09   0.00000000E+00   1.66853703E-06  -2.77156186E-06   3.53990347E-35
   6.00000000E-01   1.50000000E-01   5.00000000E-01  -1.02129203E-05   8.37067024E-06   9.97269602E-10   0.00000000E+00   1.12670270E-07   6.80445627E-06   4.07771586E-35
   7.00000000E-01   1.50000000E-01   5.00000000E-01  -7.36522202E-07   1.20761863E-06   1.04842711E-11   0.00000000E+00   2.54127819E-12   1.88079510E-07   8.16066592E-35
   8.00000000E-01   1.50000000E-01   5.00000000E-01  -2.74729264E-08   6.17603772E-08   3.45410323E-13   0.00000000E+00   4.28003827E-15   1.62402069E-09   9.00031271E-35
   9.00000000E-01   1.50000000E-01   5.00000000E-01  -1.68444630E-09   4.05427441E-09   2.14839630E-14   0.00000000E+00   2.00294291E-16   5.45495945E-11   9.17378845E-35
   1.00000000E+00   1.50000000E-01   5.00000000E-01  -1.64989315E-10   4.01768495E-10   2.11036170E-15   0.00000000E+00   1.94724491E-17   4.89969712E-12   9.31127732E-35
   1.10000000E+00   1.50000000E-01   5.00000000E-01  -2.05618587E-11   5.01129790E-11   2.63124426E-16   0.00000000E+00   2.42775667E-18   6.04657563E-13   9.36805413E-35
   1.20000000E+00   1.50000000E-01   5.00000000E-01  -1.77587951E-12   4.32695652E-12   2.27410928E-17   0.00000000E+00   2.12368181E-19   5.21767031E-14   9.41026063E-35
   1.30000000E+00   1.50000000E-01   5.00000000E-01  -1.61799958E-13   3.94712967E-13   2.09259445E-18   0.00000000E+00   2.12806215E-20   4.76560011E-15   9.42967036E-35
   1.40000000E+00   1.50000000E-01   5.00000000E-01  -2.09269881E-14   5.16947039E-14   2.83919835E-19   0.00000000E+00   3.54899793E-21   6.28012929E-16   9.43559302E-35
   1.50000000E+00   1.50000000E-01   5.00000000E-01  -2.41514737E-15   6.63210407E-15   5.32599304E-20   0.00000000E+00   1.77533101E-21   8.42039500E-17   9.44001729E-35
   1.60000000E+00   1.50000000E-01   5.00000000E-01  -5.60695554E-16   2.12558430E-15   1.77583383E-20   0.00000000E+00   1.77583383E-21   2.98162499E-17   9.44269091E-35
   1.70000000E+00   1.50000000E-01   5.00000000E-01  -3.89509337E-16   1.70824006E-15   3.55217313E-20   0.00000000E+00   0.00000000E+00   2.47408859E-17   9.44403481E-35
   1.80000000E+00   1.50000000E-01   5.00000000E-01  -3.58972311E-16   1.64090964E-15   1.77626071E-20   0.00000000E+00   0.00000000E+00   2.42104334E-17   9.44496077E-35
   1.90000000E+00   1.50000000E-01   5.00000000E-01  -3.24343243E-16   1.52356353E-15   1.77633616E-20   0.00000000E+00   0.00000000E+00   2.28614464E-17   9.44536200E-35
   2.00000000E+00   1.50000000E-01   5.00000000E-01  -2.75853460E-16   1.33335027E-15   1.77637925E-20   0.00000000E+00   0.00000000E+00   2.04816528E-17   9.44559113E-35
   2.10000000E+00   1.50000000E-01   5.00000000E-01  -2.28961538E-16   1.13431363E-15   1.77638968E-20   0.00000000E+00   0.00000000E+00   1.78349523E-17   9.44564654E-35
   2.20000000E+00   1.50000000E-01   5.00000000E-01  -2.02851371E-16   1.03732292E-15   1.77638996E-20   0.00000000E+00   1.77638996E-21   1.66447739E-17   9.44564805E-35
   2.30000000E+00   1.50000000E-01   5.00000000E-01  -1.84733950E-16   9.80477786E-16   1.77638878E-20   0.00000000E+00   1.77638878E-21   1.60407907E-17   9.44564177E-35
   2.40000000E+00   1.50000000E-01   5.00000000E-01  -1.55069938E-16   8.52580216E-16   0.00000000E+00   0.00000000E+00   1.77639382E-21   1.42999703E-17   9.44566861E-35
   2.50000000E+00   1.50000000E-01   5.00000000E-01  -1.32333742E-16   7.62072119E-16   0.00000000E+00   0.00000000E+00   0.00000000E+00   1.30564804E-17   9.44565829E-35
   2.60000000E+00   1.50000000E-01   5.00000000E-01  -1.19899824E-16   7.33294168E-16   1.77639091E-20   0.00000000E+00   1.77639091E-21   1.27900146E-17   9.44565312E-35
   2.70000000E+00   1.50000000E-01   5.00000000E-01  -1.06755585E-16   6.95278101E-16   0.00000000E+00   0.00000000E+00   0.00000000E+00   1.23458937E-17   9.44563543E-35
   2.80000000E+00   1.50000000E-01   5.00000000E-01  -9.44992303E-17   6.60016482E-16   0.00000000E+00   0.00000000E+00   1.77638671E-21   1.19017910E-17   9.44563077E-35
   2.90000000E+00   1.50000000E-01   5.00000000E-01  -8.20651072E-17   6.26531926E-16   1.77638766E-20   0.00000000E+00  -1.77635956E-21   1.14754643E-17   9.44563581E-35
   2.97500000E+00   1.50000000E-01   5.00000000E-01  -7.24730814E-17   6.03705766E-16   0.00000000E+00   0.00000000E+00  -1.77635956E-21   1.11734861E-17   9.44564239E-35
   2.50000000E-02   2.00000000E-01   5.00000000E-01   0.00000000E+00  -3.22903370E-06   9.95324263E-08   8.03523929E-09   2.24932902E-07  -7.53314589E-07   1.09737159E-34
   1.00000000E-01   2.00000000E-01   5.00000000E-01   0.00000000E+00  -7.04868427E-07   6.75508116E-09   0.00000000E+00   9.78463603E-07  -1.43887113E-06   6.98643962E-35
   2.00000000E-01   2.00000000E-01   5.00000000E-01   0.00000000E+00  -7.23517780E-07   2.03812485E-09   0.00000000E+00   7.57615496E-07  -1.07694088E-06   8.13066016E-35
   3.00000000E-01   2.00000000E-01   5.00000000E-01   0.00000000E+00  -3.82760046E-07   3.17869079E-09   0.00000000E+00   1.16866102E-06  -1.79751362E-06   6.94053870E-35
   4.00000000E-01   2.00000000E-01   5.00000000E-01   0.00000000E+00  -1.06199055E-08   2.26191840E-09   0.00000000E+00   9.60893328E-07  -1.66709767E-06   4.61191696E-35
   5.00000000E-01   2.00000000E-01   5.00000000E-01   0.00000000E+00   9.63169007E-08   2.31133194E-10   0.00000000E+00   5.37577554E-08   4.83543601E-08   2.69217330E-35
   6.00000000E-01   2.00000000E-01   5.00000000E-01  -5.54953047E-06   5.48157846E-06   2.76324719E-10   0.00000000E+00   1.73408901E-09   3.24608143E-06   5.22597653E-35
   7.00000000E-01   2.00000000E-01   5.00000000E-01  -4.01089508E-07   7.74424872E-07   5.09541301E-12   0.00000000E+00   2.15741690E-13   6.59780635E-08   8.05628822E-35
   8.00000000E-01   2.00000000E-01   5.00000000E-01  -3.19001199E-08   7.47457730E-08   4.04459510E-13   0.00000000E+00   4.57975932E-15   1.49584291E-09   8.97130316E-35
   9.00000000E-01   2.00000000E-01   5.00000000E-01  -2.54657242E-09   6.17821720E-09   3.25246613E-14   0.00000000E+00   3.05142941E-16   7.97581396E-11   9.25883662E-35
   1.00000000E+00   2.00000000E-01   5.00000000E-01  -2.29188279E-10   5.58378775E-10   2.93111124E-15   0.00000000E+00   2.70495042E-17   6.77855097E-12   9.36217504E-35
   1.10000000E+00   2.00000000E-01   5.00000000E-01  -1.72586924E-11   4.20371383E-11   2.20799668E-16   0.00000000E+00   2.03540300E-18   5.07127572E-13   9.40304551E-35
   1.20000000E+00   2.00000000E-01   5.00000000E-01  -1.64352142E-12   4.00165026E-12   2.10549755E-17   0.00000000E+00   1.94953477E-19   4.82711366E-14   9.42392345E-35
   1.30000000E+00   2.00000000E-01   5.00000000E-01  -1.20335426E-13   2.93361833E-13   1.52618716E-18   0.00000000E+00   1.77463623E-20   3.54265307E-15   9.43632292E-35
   1.40000000E+00   2.00000000E-01   5.00000000E-01  -5.96668466E-15   1.50151307E-14   7.10313085E-20   0.00000000E+00   0.00000000E+00   1.84201941E-16   9.44241913E-35
   1.50000000E+00   2.00000000E-01   5.00000000E-01  -6.49723629E-16   2.07740182E-15   0.00000000E+00   0.00000000E+00   1.77616434E-21   2.80278733E-17   9.44444838E-35
   1.60000000E+00   2.00000000E-01   5.00000000E-01  -3.22208587E-16   1.29661458E-15   3.55261205E-20   0.00000000E+00   1.77630603E-21   1.86334502E-17   9.44520175E-35
   1.70000000E+00   2.00000000E-01   5.00000000E-01  -2.93789392E-16   1.25658565E-15   0.00000000E+00   0.00000000E+00   1.77634387E-21   1.84917397E-17   9.44540298E-35
   1.80000000E+00   2.00000000E-01   5.00000000E-01  -2.85798481E-16   1.27728807E-15   0.00000000E+00   0.00000000E+00   1.77635501E-21   1.91668705E-17   9.44546221E-35
   1.90000000E+00   2.00000000E-01   5.00000000E-01  -2.59511880E-16   1.19194693E-15   0.00000000E+00   0.00000000E+00  -1.77635956E-21   1.81900693E-17   9.44556298E-35
   2.00000000E+00   2.00000000E-01   5.00000000E-01  -2.26652371E-16   1.06929251E-15   0.00000000E+00   0.00000000E+00  -1.77635956E-21   1.66446895E-17   9.44560014E-35
   2.10000000E+00   2.00000000E-01   5.00000000E-01  -1.93437061E-16   9.37574316E-16   0.00000000E+00   0.00000000E+00   0.00000000E+00   1.49748986E-17   9.44560468E-35
   2.20000000E+00   2.00000000E-01   5.00000000E-01  -1.55600764E-16   7.77263500E-16   1.77639927E-20   0.00000000E+00   1.77639927E-21   1.28078387E-17   9.44569755E-35
   2.30000000E+00   2.00000000E-01   5.00000000E-01  -1.33042571E-16   6.98836373E-16   1.77640156E-20   0.00000000E+00  -3.55271913E-21   1.18485984E-17   9.44570973E-35
   2.40000000E+00   2.00000000E-01   5.00000000E-01  -1.16879916E-16   6.39500470E-16   3.55278039E-20   0.00000000E+00   0.00000000E+00   1.11202026E-17   9.44564930E-35
   2.50000000E+00   2.00000000E-01   5.00000000E-01  -9.75184395E-17   5.71997927E-16   0.00000000E+00   0.00000000E+00   0.00000000E+00   1.02853043E-17   9.44565400E-35
   2.60000000E+00   2.00000000E-01   5.00000000E-01  -8.02883165E-17   5.14976296E-16   0.00000000E+00   0.00000000E+00   0.00000000E+00   9.57475762E-18   9.44566358E-35
   2.70000000E+00   2.00000000E-01   5.00000000E-01  -6.59003961E-17   4.72254209E-16   1.77639349E-20   0.00000000E+00   1.77639349E-21   9.05960680E-18   9.44566683E-35
   2.80000000E+00   2.00000000E-01   5.00000000E-01  -5.50650592E-17   4.54490702E-16   0.00000000E+00   0.00000000E+00   1.77639516E-21   8.97079555E-18   9.44567570E-35
   2.90000000E+00   2.00000000E-01   5.00000000E-01  -4.92034613E-17   4.66125415E-16  -7.31707866E-24   0.00000000E+00   1.77639259E-21   9.27276930E-18   9.44566203E-35
   2.97500000E+00   2.00000000E-01   5.00000000E-01  -4.15654582E-17   4.52624399E-16   0.00000000E+00   0.00000000E+00  -1.77635956E-21   9.09512137E-18   9.44565301E-35
   2.50000000E-02   2.50000000E-01   5.00000000E-01   0.00000000E+00   0.00000000E+00   6.92498546E-08   1.17318702E-08   2.86027073E-07  -7.36215358E-07   1.16333656E-34
   1.00000000E-01   2.50000000E-01   5.00000000E-01   0.00000000E+00  -1.81185459E-07   2.52051363E-09   0.00000000E+00   8.23271348E-07  -1.43406647E-06   5.45301627E-35
   2.00000000E-01   2.50000000E-01   5.00000000E-01   0.00000000E+00  -5.37230045E-09   1.29858835E-09   0.00000000E+00   3.82603745E-07  -7.36727863E-07   4.29768744E-35
   3.00000000E-01   2.50000000E-01   5.00000000E-01   0.00000000E+00  -4.64136427E-09   4.02558808E-10   0.00000000E+00   7.65386840E-08  -2.23275344E-07   3.56361136E-35
   4.00000000E-01   2.50000000E-01   5.00000000E-01   0.00000000E+00   1.99051970E-08   1.07222804E-10   0.00000000E+00   1.68128483E-08  -3.70508340E-08   2.68020718E-35
   5.00000000E-01   2.50000000E-01   5.00000000E-01  -6.98627896E-06   5.87894232E-06   4.16628400E-10   0.00000000E+00   2.77097709E-09   4.76678589E-06   3.00895538E-35
   6.00000000E-01   2.50000000E-01   5.00000000E-01  -1.24258612E-06   2.17889750E-06   1.63137462E-11   0.00000000E+00   1.11876597E-12   2.87930905E-07   6.18233469E-35
   7.00000000E-01   2.50000000E-01   5.00000000E-01  -1.83239074E-07   4.32692402E-07   2.35195841E-12   0.00000000E+00   3.98910081E-14   1.15296815E-08   8.14957487E-35
   8.00000000E-01   2.50000000E-01   5.00000000E-01  -1.98440853E-08   4.88088076E-08   2.54352183E-13   0.00000000E+00   2.63536118E-15   6.62808878E-10   8.97730766E-35
   9.00000000E-01   2.50000000E-01   5.00000000E-01  -1.52025168E-09   3.72744619E-09   1.94565735E-14   0.00000000E+00   1.81809848E-16   4.53058715E-11   9.29649994E-35
   1.00000000E+00   2.50000000E-01   5.00000000E-01  -1.01307449E-10   2.47221398E-10   1.29625239E-15   0.00000000E+00   1.19663039E-17   2.97852859E-12   9.39724775E-35
   1.10000000E+00   2.50000000E-01   5.00000000E-01  -6.27633769E-12   1.52846191E-11   8.03100820E-17   0.00000000E+00   7.39441471E-19   1.84293694E-13   9.42890368E-35
   1.20000000E+00   2.50000000E-01   5.00000000E-01  -3.85954369E-13   9.39447302E-13   4.93533817E-18   0.00000000E+00   4.79331405E-20   1.13364718E-14   9.43986036E-35
   1.30000000E+00   2.50000000E-01   5.00000000E-01  -2.98325307E-14   7.27278051E-14   3.90691766E-19   0.00000000E+00   1.77587167E-21   8.79109751E-16   9.44289212E-35
   1.40000000E+00   2.50000000E-01   5.00000000E-01  -2.61719745E-15   6.54394414E-15   3.55229234E-20   0.00000000E+00   0.00000000E+00   8.05127059E-17   9.44435175E-35
   1.50000000E+00   2.50000000E-01   5.00000000E-01  -4.05690984E-16   1.20040205E-15   1.77626821E-20   0.00000000E+00   1.77626821E-21   1.61285153E-17   9.44500065E-35
   1.60000000E+00   2.50000000E-01   5.00000000E-01  -2.31268725E-16   8.29101205E-16   1.77632824E-20   0.00000000E+00   1.77632824E-21   1.18658726E-17   9.44531986E-35
   1.70000000E+00   2.50000000E-01   5.00000000E-01  -2.13330182E-16   8.23873318E-16   1.77635472E-20   0.00000000E+00   0.00000000E+00   1.21502663E-17   9.44546067E-35