 TITLE = "Total Component Concentration in Minerals (mol/m^3 PM)" 
VARIABLES = "X"          "Y"              "Z"            "H+"             "CO3--"          "Ca++"           "SO4--"          "Fe++"           "Al+++"          "K+"             "O2(aq)"         "Na+"            "Tracer"        
 ZONE I=          31 , J=          41 , K=           1  F=POINT
   2.50000000E-02   1.25000000E-02   5.00000000E-01  -1.84634705E+04   0.00000000E+00   0.00000000E+00   1.12294710E+02   4.76436013E+02   5.89301350E+03   5.61473549E+01   1.19109003E+02   0.00000000E+00   3.30000000E+10
   1.00000000E-01   1.25000000E-02   5.00000000E-01  -1.15833876E+04   2.03427624E+03   4.67612113E+03   4.67612113E+03   2.03752037E+03   3.85896643E+03   0.00000000E+00   8.11032493E-01   0.00000000E+00   3.30000000E+10
   2.00000000E-01   1.25000000E-02   5.00000000E-01  -4.52886812E+03   3.06010178E+03   6.00011826E+03   6.00011826E+03   3.06034821E+03   1.50945842E+03   0.00000000E+00   6.16070326E-02   0.00000000E+00   3.30000000E+10
   3.00000000E-01   1.25000000E-02   5.00000000E-01  -4.60269130E+03   3.66208592E+03   6.17669687E+03   6.17669687E+03   3.66246694E+03   1.53397642E+03   0.00000000E+00   9.52554009E-02   0.00000000E+00   3.30000000E+10
   4.00000000E-01   1.25000000E-02   5.00000000E-01  -5.45675117E+03   4.15526616E+03   6.06237694E+03   6.06237694E+03   4.15603112E+03   1.81840709E+03   0.00000000E+00   1.91238193E-01   0.00000000E+00   3.30000000E+10
   5.00000000E-01   1.25000000E-02   5.00000000E-01  -4.52255756E+03   4.46243941E+03   6.87835008E+03   6.38943748E+03   3.97370929E+03   1.50739753E+03   0.00000000E+00   4.56208466E-02   0.00000000E+00   3.30000000E+10
   6.00000000E-01   1.25000000E-02   5.00000000E-01  -4.51950630E+03   6.18659883E+03   7.64131033E+03   3.46941413E+03   2.01473131E+03   1.50648298E+03   0.00000000E+00   7.17168530E-03   0.00000000E+00   3.30000000E+10
   7.00000000E-01   1.25000000E-02   5.00000000E-01  -4.51946582E+03   7.16698539E+03   6.69931151E+03   1.27209368E+03   1.73977820E+03   1.50648152E+03   0.00000000E+00   2.65861987E-03   0.00000000E+00   3.30000000E+10
   8.00000000E-01   1.25000000E-02   5.00000000E-01  -4.51945506E+03   7.51652934E+03   6.18308081E+03   3.80782729E+02   1.71423676E+03   1.50648135E+03   0.00000000E+00   1.37473729E-03   0.00000000E+00   3.30000000E+10
   9.00000000E-01   1.25000000E-02   5.00000000E-01  -4.51945294E+03   7.59086496E+03   6.06837627E+03   1.88861710E+02   1.71135487E+03   1.50648133E+03   0.00000000E+00   1.11797362E-03   0.00000000E+00   3.30000000E+10
   1.00000000E+00   1.25000000E-02   5.00000000E-01  -4.51945196E+03   7.62636342E+03   6.01440664E+03   9.82470791E+01   1.71020785E+03   1.50648132E+03   0.00000000E+00   9.98909542E-04   0.00000000E+00   3.30000000E+10
   1.10000000E+00   1.25000000E-02   5.00000000E-01  -4.51945149E+03   7.64392242E+03   5.98796234E+03   5.36979359E+01   1.70966177E+03   1.50648132E+03   0.00000000E+00   9.40446146E-04   0.00000000E+00   3.30000000E+10
   1.20000000E+00   1.25000000E-02   5.00000000E-01  -4.51945122E+03   7.65382032E+03   5.97314104E+03   2.86746713E+01   1.70935759E+03   1.50648132E+03   0.00000000E+00   9.07579400E-04   0.00000000E+00   3.30000000E+10
   1.30000000E+00   1.25000000E-02   5.00000000E-01  -4.51945107E+03   7.65971601E+03   5.96431745E+03   1.37746627E+01   1.70917677E+03   1.50648132E+03   0.00000000E+00   8.87967106E-04   0.00000000E+00   3.30000000E+10
   1.40000000E+00   1.25000000E-02   5.00000000E-01  -4.51945098E+03   7.66308858E+03   5.95923928E+03   5.21978545E+00   1.70907259E+03   1.50648132E+03   0.00000000E+00   8.76653318E-04   0.00000000E+00   3.30000000E+10
   1.50000000E+00   1.25000000E-02   5.00000000E-01  -4.51945094E+03   7.66439944E+03   5.95731460E+03   1.94474427E+00   1.70903307E+03   1.50648132E+03   0.00000000E+00   8.72349395E-04   0.00000000E+00   3.30000000E+10
   1.60000000E+00   1.25000000E-02   5.00000000E-01  -4.51945093E+03   7.66488549E+03   5.95661851E+03   7.48233695E-01   1.70901870E+03   1.50648132E+03   0.00000000E+00   8.70786152E-04   0.00000000E+00   3.30000000E+10
   1.70000000E+00   1.25000000E-02   5.00000000E-01  -4.51945092E+03   7.66506450E+03   5.95637738E+03   3.23039431E-01   1.70901365E+03   1.50648132E+03   0.00000000E+00   8.70241591E-04   0.00000000E+00   3.30000000E+10
   1.80000000E+00   1.25000000E-02   5.00000000E-01  -4.51945092E+03   7.66514078E+03   5.95629217E+03   1.59760451E-01   1.70901184E+03   1.50648132E+03   0.00000000E+00   8.70054318E-04   0.00000000E+00   3.30000000E+10
   1.90000000E+00   1.25000000E-02   5.00000000E-01  -4.51945092E+03   7.66518262E+03   5.95628285E+03   1.08277068E-01   1.70901153E+03   1.50648132E+03   0.00000000E+00   8.70024392E-04   0.00000000E+00   3.30000000E+10
   2.00000000E+00   1.25000000E-02   5.00000000E-01  -4.51945092E+03   7.66520140E+03   5.95627920E+03   8.56860354E-02   1.70901137E+03   1.50648132E+03   0.00000000E+00   8.70017952E-04   0.00000000E+00   3.30000000E+10
   2.10000000E+00   1.25000000E-02   5.00000000E-01  -4.51945092E+03   7.66520444E+03   5.95627253E+03   7.58487365E-02   1.70901124E+03   1.50648132E+03   0.00000000E+00   8.70018861E-04   0.00000000E+00   3.30000000E+10
   2.20000000E+00   1.25000000E-02   5.00000000E-01  -4.51945092E+03   7.66519447E+03   5.95625630E+03   6.93980408E-02   1.70901104E+03   1.50648132E+03   0.00000000E+00   8.70015995E-04   0.00000000E+00   3.30000000E+10
   2.30000000E+00   1.25000000E-02   5.00000000E-01  -4.51945092E+03   7.66520457E+03   5.95626183E+03   6.49976477E-02   1.70901121E+03   1.50648132E+03   0.00000000E+00   8.70042034E-04   0.00000000E+00   3.30000000E+10
   2.40000000E+00   1.25000000E-02   5.00000000E-01  -4.51945091E+03   7.66523742E+03   5.95629030E+03   6.11946827E-02   1.70901180E+03   1.50648132E+03   0.00000000E+00   8.70105597E-04   0.00000000E+00   3.30000000E+10
   2.50000000E+00   1.25000000E-02   5.00000000E-01  -4.51945091E+03   7.66525506E+03   5.95630279E+03   5.61573769E-02   1.70901191E+03   1.50648132E+03   0.00000000E+00   8.70130732E-04   0.00000000E+00   3.30000000E+10
   2.60000000E+00   1.25000000E-02   5.00000000E-01  -4.51945091E+03   7.66525951E+03   5.95629935E+03   4.81952492E-02   1.70901184E+03   1.50648132E+03   0.00000000E+00   8.70136605E-04   0.00000000E+00   3.30000000E+10
   2.70000000E+00   1.25000000E-02   5.00000000E-01  -4.51945092E+03   7.66525275E+03   5.95627358E+03   2.88875901E-02   1.70901154E+03   1.50648132E+03   0.00000000E+00   8.70117890E-04   0.00000000E+00   3.30000000E+10
   2.80000000E+00   1.25000000E-02   5.00000000E-01  -4.51945092E+03   7.66524712E+03   5.95626489E+03   2.57525369E-02   1.70901146E+03   1.50648132E+03   0.00000000E+00   8.70121867E-04   0.00000000E+00   3.30000000E+10
   2.90000000E+00   1.25000000E-02   5.00000000E-01  -4.51945092E+03   7.66526277E+03   5.95627817E+03   2.37164151E-02   1.70901179E+03   1.50648132E+03   0.00000000E+00   8.70168465E-04   0.00000000E+00   3.30000000E+10
   2.97500000E+00   1.25000000E-02   5.00000000E-01  -4.51945091E+03   7.66528829E+03   5.95630183E+03   2.23475597E-02   1.70901229E+03   1.50648132E+03   0.00000000E+00   8.70226891E-04   0.00000000E+00   3.30000000E+10
   2.50000000E-02   5.00000000E-02   5.00000000E-01  -1.72810103E+04   0.00000000E+00   2.65686734E+03   2.65891092E+03   1.43897775E+02   5.66542670E+03   1.02179101E+00   3.59744437E+01   0.00000000E+00   3.30000000E+10
   1.00000000E-01   5.00000000E-02   5.00000000E-01  -9.51638778E+03   1.85018433E+03   5.24370444E+03   5.24370444E+03   1.85388594E+03   3.16966152E+03   0.00000000E+00   9.25400989E-01   0.00000000E+00   3.30000000E+10
   2.00000000E-01   5.00000000E-02   5.00000000E-01  -1.20149321E+04   1.76780768E+03   5.10562567E+03   5.10562567E+03   1.77157259E+03   4.00246742E+03   0.00000000E+00   9.41227956E-01   0.00000000E+00   3.30000000E+10
   3.00000000E-01   5.00000000E-02   5.00000000E-01  -1.26682853E+04   1.43454850E+03   5.32266410E+03   5.32266410E+03   1.43800005E+03   4.22046072E+03   0.00000000E+00   8.62888561E-01   0.00000000E+00   3.30000000E+10
   4.00000000E-01   5.00000000E-02   5.00000000E-01  -1.33431788E+04   1.00201647E+03   5.34432879E+03   5.34432879E+03   1.00494447E+03   4.44577426E+03   0.00000000E+00   7.31999380E-01   0.00000000E+00   3.30000000E+10
   5.00000000E-01   5.00000000E-02   5.00000000E-01  -5.99166443E+03   3.96917857E+03   5.90175582E+03   5.90175582E+03   3.97024465E+03   1.99651076E+03   0.00000000E+00   2.66519121E-01   0.00000000E+00   3.30000000E+10
   6.00000000E-01   5.00000000E-02   5.00000000E-01  -4.52299674E+03   4.56060803E+03   6.71473558E+03   6.33342801E+03   4.17949873E+03   1.50753340E+03   0.00000000E+00   4.95680554E-02   0.00000000E+00   3.30000000E+10
   7.00000000E-01   5.00000000E-02   5.00000000E-01  -4.51948607E+03   6.68940328E+03   7.14833562E+03   2.32186426E+03   1.86295156E+03   1.50648227E+03   0.00000000E+00   4.90829643E-03   0.00000000E+00   3.30000000E+10
   8.00000000E-01   5.00000000E-02   5.00000000E-01  -4.51946154E+03   7.30404751E+03   6.49539579E+03   9.18670140E+02   1.72733046E+03   1.50648145E+03   0.00000000E+00   2.14990902E-03   0.00000000E+00   3.30000000E+10
   9.00000000E-01   5.00000000E-02   5.00000000E-01  -4.51945526E+03   7.50918861E+03   6.19420336E+03   3.99414706E+02   1.71440555E+03   1.50648135E+03   0.00000000E+00   1.40022454E-03   0.00000000E+00   3.30000000E+10
   1.00000000E+00   5.00000000E-02   5.00000000E-01  -4.51945246E+03   7.60884357E+03   6.04113963E+03   1.43071980E+02   1.71078014E+03   1.50648133E+03   0.00000000E+00   1.05792142E-03   0.00000000E+00   3.30000000E+10
   1.10000000E+00   5.00000000E-02   5.00000000E-01  -4.51945142E+03   7.64695166E+03   5.98327108E+03   4.58828155E+01   1.70956712E+03   1.50648133E+03   0.00000000E+00   9.30058208E-04   0.00000000E+00   3.30000000E+10
   1.20000000E+00   5.00000000E-02   5.00000000E-01  -4.51945112E+03   7.65775931E+03   5.96720872E+03   1.86822772E+01   1.70923645E+03   1.50648132E+03   0.00000000E+00   8.94423405E-04   0.00000000E+00   3.30000000E+10
   1.30000000E+00   5.00000000E-02   5.00000000E-01  -4.51945101E+03   7.66179470E+03   5.96125618E+03   8.57188208E+00   1.70911393E+03   1.50648132E+03   0.00000000E+00   8.81138330E-04   0.00000000E+00   3.30000000E+10
   1.40000000E+00   5.00000000E-02   5.00000000E-01  -4.51945096E+03   7.66354398E+03   5.95866605E+03   4.17918190E+00   1.70906061E+03   1.50648132E+03   0.00000000E+00   8.75341838E-04   0.00000000E+00   3.30000000E+10
   1.50000000E+00   5.00000000E-02   5.00000000E-01  -4.51945094E+03   7.66432526E+03   5.95755033E+03   2.25921721E+00   1.70903764E+03   1.50648132E+03   0.00000000E+00   8.72839364E-04   0.00000000E+00   3.30000000E+10
   1.60000000E+00   5.00000000E-02   5.00000000E-01  -4.51945093E+03   7.66475158E+03   5.95689319E+03   1.16214610E+00   1.70902403E+03   1.50648132E+03   0.00000000E+00   8.71363121E-04   0.00000000E+00   3.30000000E+10
   1.70000000E+00   5.00000000E-02   5.00000000E-01  -4.51945093E+03   7.66498242E+03   5.95647992E+03   5.09725313E-01   1.70901571E+03   1.50648132E+03   0.00000000E+00   8.70464971E-04   0.00000000E+00   3.30000000E+10
   1.80000000E+00   5.00000000E-02   5.00000000E-01  -4.51945092E+03   7.66509571E+03   5.95631210E+03   2.25178508E-01   1.70901227E+03   1.50648132E+03   0.00000000E+00   8.70099288E-04   0.00000000E+00   3.30000000E+10
   1.90000000E+00   5.00000000E-02   5.00000000E-01  -4.51945092E+03   7.66515857E+03   5.95632718E+03   1.77485844E-01   1.70901236E+03   1.50648132E+03   0.00000000E+00   8.70100559E-04   0.00000000E+00   3.30000000E+10
   2.00000000E+00   5.00000000E-02   5.00000000E-01  -4.51945092E+03   7.66516668E+03   5.95627903E+03   1.20321161E-01   1.70901145E+03   1.50648132E+03   0.00000000E+00   8.70011869E-04   0.00000000E+00   3.30000000E+10
   2.10000000E+00   5.00000000E-02   5.00000000E-01  -4.51945092E+03   7.66516478E+03   5.95625158E+03   9.42202002E-02   1.70901090E+03   1.50648132E+03   0.00000000E+00   8.69962440E-04   0.00000000E+00   3.30000000E+10
   2.20000000E+00   5.00000000E-02   5.00000000E-01  -4.51945092E+03   7.66520001E+03   5.95627353E+03   8.14893705E-02   1.70901145E+03   1.50648132E+03   0.00000000E+00   8.70019214E-04   0.00000000E+00   3.30000000E+10
   2.30000000E+00   5.00000000E-02   5.00000000E-01  -4.51945092E+03   7.66519906E+03   5.95626379E+03   7.23525069E-02   1.70901110E+03   1.50648132E+03   0.00000000E+00   8.70001777E-04   0.00000000E+00   3.30000000E+10
   2.40000000E+00   5.00000000E-02   5.00000000E-01  -4.51945092E+03   7.66518806E+03   5.95624464E+03   6.39669319E-02   1.70901087E+03   1.50648132E+03   0.00000000E+00   8.69995026E-04   0.00000000E+00   3.30000000E+10
   2.50000000E+00   5.00000000E-02   5.00000000E-01  -4.51945092E+03   7.66520555E+03   5.95625148E+03   5.36087957E-02   1.70901115E+03   1.50648132E+03   0.00000000E+00   8.70045216E-04   0.00000000E+00   3.30000000E+10
   2.60000000E+00   5.00000000E-02   5.00000000E-01  -4.51945092E+03   7.66522871E+03   5.95625889E+03   3.80561213E-02   1.70901136E+03   1.50648132E+03   0.00000000E+00   8.70087873E-04   0.00000000E+00   3.30000000E+10
   2.70000000E+00   5.00000000E-02   5.00000000E-01  -4.51945092E+03   7.66524949E+03   5.95626763E+03   2.62332356E-02   1.70901157E+03   1.50648132E+03   0.00000000E+00   8.70126797E-04   0.00000000E+00   3.30000000E+10
   2.80000000E+00   5.00000000E-02   5.00000000E-01  -4.51945092E+03   7.66524124E+03   5.95625414E+03   2.08196907E-02   1.70901140E+03   1.50648132E+03   0.00000000E+00   8.70129446E-04   0.00000000E+00   3.30000000E+10
   2.90000000E+00   5.00000000E-02   5.00000000E-01  -4.51945092E+03   7.66526673E+03   5.95627018E+03   1.17078685E-02   1.70901174E+03   1.50648132E+03   0.00000000E+00   8.70176968E-04   0.00000000E+00   3.30000000E+10
   2.97500000E+00   5.00000000E-02   5.00000000E-01  -4.51945091E+03   7.66529281E+03   5.95629411E+03   9.99307460E-03   1.70901218E+03   1.50648132E+03   0.00000000E+00   8.70226059E-04   0.00000000E+00   3.30000000E+10
   2.50000000E-02   1.00000000E-01   5.00000000E-01  -9.82774996E+03   0.00000000E+00   0.00000000E+00   4.73158035E+02   1.26524807E+03   2.66899696E+03   2.36579017E+02   3.16312018E+02   0.00000000E+00   3.30000000E+10
   1.00000000E-01   1.00000000E-01   5.00000000E-01  -2.03793537E+04   0.00000000E+00   0.00000000E+00   4.22792681E-02   1.49747271E+02   6.69330753E+03   2.11396340E-02   3.74368179E+01   0.00000000E+00   3.30000000E+10
   2.00000000E-01   1.00000000E-01   5.00000000E-01  -1.82864723E+04   0.00000000E+00   1.15520656E+03   1.15520656E+03   2.59768279E+01   6.07817287E+03   0.00000000E+00   6.49420697E+00   0.00000000E+00   3.30000000E+10
   3.00000000E-01   1.00000000E-01   5.00000000E-01  -1.49221409E+04   0.00000000E+00   1.66336922E+03   1.66336922E+03   1.49388792E+01   4.96408773E+03   0.00000000E+00   3.73471980E+00   0.00000000E+00   3.30000000E+10
   4.00000000E-01   1.00000000E-01   5.00000000E-01  -1.38964535E+04   5.03253012E+01   4.88264620E+03   4.88264620E+03   5.73570309E+01   4.62746333E+03   0.00000000E+00   1.75793243E+00   0.00000000E+00   3.30000000E+10
   5.00000000E-01   1.00000000E-01   5.00000000E-01  -1.27900737E+04   7.54449337E+02   5.64890375E+03   5.64890375E+03   7.57497349E+02   4.26132588E+03   0.00000000E+00   7.62002898E-01   0.00000000E+00   3.30000000E+10
   6.00000000E-01   1.00000000E-01   5.00000000E-01  -5.61880104E+03   4.31183243E+03   6.21968361E+03   6.21968361E+03   4.31263909E+03   1.87239590E+03   0.00000000E+00   2.01666171E-01   0.00000000E+00   3.30000000E+10
   7.00000000E-01   1.00000000E-01   5.00000000E-01  -4.51960806E+03   6.35659503E+03   7.15869170E+03   2.81601580E+03   2.01395283E+03   1.50651355E+03   0.00000000E+00   8.42657282E-03   0.00000000E+00   3.30000000E+10
   8.00000000E-01   1.00000000E-01   5.00000000E-01  -4.51946623E+03   7.15427988E+03   6.68365902E+03   1.26873515E+03   1.73936684E+03   1.50648152E+03   0.00000000E+00   2.70763864E-03   0.00000000E+00   3.30000000E+10
   9.00000000E-01   1.00000000E-01   5.00000000E-01  -4.51945689E+03   7.45461711E+03   6.27693282E+03   5.39047900E+02   1.71673857E+03   1.50648138E+03   0.00000000E+00   1.59498014E-03   0.00000000E+00   3.30000000E+10
   1.00000000E+00   1.00000000E-01   5.00000000E-01  -4.51945257E+03   7.60527406E+03   6.04667579E+03   1.52317003E+02   1.71091955E+03   1.50648134E+03   0.00000000E+00   1.07047661E-03   0.00000000E+00   3.30000000E+10
   1.10000000E+00   1.00000000E-01   5.00000000E-01  -4.51945128E+03   7.65240021E+03   5.97497013E+03   3.19641733E+01   1.70939790E+03   1.50648133E+03   0.00000000E+00   9.11738132E-04   0.00000000E+00   3.30000000E+10
   1.20000000E+00   1.00000000E-01   5.00000000E-01  -4.51945105E+03   7.66061766E+03   5.96284503E+03   1.13711759E+01   1.70914734E+03   1.50648132E+03   0.00000000E+00   8.84758080E-04   0.00000000E+00   3.30000000E+10
   1.30000000E+00   1.00000000E-01   5.00000000E-01  -4.51945097E+03   7.66337325E+03   5.95884007E+03   4.52786481E+00   1.70906455E+03   1.50648132E+03   0.00000000E+00   8.75773443E-04   0.00000000E+00   3.30000000E+10
   1.40000000E+00   1.00000000E-01   5.00000000E-01  -4.51945096E+03   7.66389420E+03   5.95803991E+03   3.19030986E+00   1.70904809E+03   1.50648132E+03   0.00000000E+00   8.73988696E-04   0.00000000E+00   3.30000000E+10
   1.50000000E+00   1.00000000E-01   5.00000000E-01  -4.51945094E+03   7.66450182E+03   5.95723562E+03   1.76164150E+00   1.70903133E+03   1.50648132E+03   0.00000000E+00   8.72158126E-04   0.00000000E+00   3.30000000E+10
   1.60000000E+00   1.00000000E-01   5.00000000E-01  -4.51945093E+03   7.66484196E+03   5.95680453E+03   9.81369971E-01   1.70902228E+03   1.50648132E+03   0.00000000E+00   8.71168038E-04   0.00000000E+00   3.30000000E+10
   1.70000000E+00   1.00000000E-01   5.00000000E-01  -4.51945093E+03   7.66495858E+03   5.95659234E+03   6.48169045E-01   1.70901790E+03   1.50648132E+03   0.00000000E+00   8.70699024E-04   0.00000000E+00   3.30000000E+10
   1.80000000E+00   1.00000000E-01   5.00000000E-01  -4.51945092E+03   7.66507195E+03   5.95649796E+03   4.38440742E-01   1.70901591E+03   1.50648132E+03   0.00000000E+00   8.70471384E-04   0.00000000E+00   3.30000000E+10
   1.90000000E+00   1.00000000E-01   5.00000000E-01  -4.51945092E+03   7.66512867E+03   5.95639577E+03   2.77213585E-01   1.70901360E+03   1.50648132E+03   0.00000000E+00   8.70234643E-04   0.00000000E+00   3.30000000E+10
   2.00000000E+00   1.00000000E-01   5.00000000E-01  -4.51945092E+03   7.66511980E+03   5.95623230E+03   1.19814887E-01   1.70901079E+03   1.50648132E+03   0.00000000E+00   8.69953505E-04   0.00000000E+00   3.30000000E+10
   2.10000000E+00   1.00000000E-01   5.00000000E-01  -4.51945092E+03   7.66515898E+03   5.95622418E+03   7.24327775E-02   1.70901071E+03   1.50648132E+03   0.00000000E+00   8.69967341E-04   0.00000000E+00   3.30000000E+10
   2.20000000E+00   1.00000000E-01   5.00000000E-01  -4.51945092E+03   7.66519974E+03   5.95625905E+03   6.70193881E-02   1.70901119E+03   1.50648132E+03   0.00000000E+00   8.70015443E-04   0.00000000E+00   3.30000000E+10
   2.30000000E+00   1.00000000E-01   5.00000000E-01  -4.51945092E+03   7.66522592E+03   5.95627996E+03   6.20874538E-02   1.70901152E+03   1.50648132E+03   0.00000000E+00   8.70061181E-04   0.00000000E+00   3.30000000E+10
   2.40000000E+00   1.00000000E-01   5.00000000E-01  -4.51945092E+03   7.66516979E+03   5.95620899E+03   4.59594151E-02   1.70901024E+03   1.50648132E+03   0.00000000E+00   8.69947183E-04   0.00000000E+00   3.30000000E+10
   2.50000000E+00   1.00000000E-01   5.00000000E-01  -4.51945092E+03   7.66520548E+03   5.95622764E+03   2.97018735E-02   1.70901102E+03   1.50648132E+03   0.00000000E+00   8.70038105E-04   0.00000000E+00   3.30000000E+10
   2.60000000E+00   1.00000000E-01   5.00000000E-01  -4.51945091E+03   7.66525815E+03   5.95627482E+03   2.50305943E-02   1.70901185E+03   1.50648132E+03   0.00000000E+00   8.70138343E-04   0.00000000E+00   3.30000000E+10
   2.70000000E+00   1.00000000E-01   5.00000000E-01  -4.51945092E+03   7.66525961E+03   5.95627618E+03   2.47176867E-02   1.70901163E+03   1.50648132E+03   0.00000000E+00   8.70134191E-04   0.00000000E+00   3.30000000E+10
   2.80000000E+00   1.00000000E-01   5.00000000E-01  -4.51945092E+03   7.66524488E+03   5.95625492E+03   1.79284353E-02   1.70901137E+03   1.50648132E+03   0.00000000E+00   8.70127485E-04   0.00000000E+00   3.30000000E+10
   2.90000000E+00   1.00000000E-01   5.00000000E-01  -4.51945091E+03   7.66528881E+03   5.95629190E+03   1.16483516E-02   1.70901204E+03   1.50648132E+03   0.00000000E+00   8.70207142E-04   0.00000000E+00   3.30000000E+10
   2.97500000E+00   1.00000000E-01   5.00000000E-01  -4.51945091E+03   7.66531561E+03   5.95631504E+03   8.42451488E-03   1.70901248E+03   1.50648132E+03   0.00000000E+00   8.70257473E-04   0.00000000E+00   3.30000000E+10
   2.50000000E-02   1.50000000E-01   5.00000000E-01  -5.49192165E+03   0.00000000E+00   0.00000000E+00   9.35407263E+02   1.42520257E+03   1.34820913E+03   4.67703631E+02   3.56300643E+02   0.00000000E+00   3.30000000E+10
   1.00000000E-01   1.50000000E-01   5.00000000E-01  -1.57695399E+04   0.00000000E+00   0.00000000E+00   9.03818065E-02   9.89634991E+02   4.59680184E+03   4.51909033E-02   2.47408748E+02   0.00000000E+00   3.30000000E+10
   2.00000000E-01   1.50000000E-01   5.00000000E-01  -1.86945650E+04   0.00000000E+00   0.00000000E+00   0.00000000E+00   4.52554826E+02   5.92981844E+03   0.00000000E+00   1.13138707E+02   0.00000000E+00   3.30000000E+10
   3.00000000E-01   1.50000000E-01   5.00000000E-01  -1.84769586E+04   0.00000000E+00   0.00000000E+00   0.00000000E+00   1.23560746E+02   6.07661237E+03   0.00000000E+00   3.08901866E+01   0.00000000E+00   3.30000000E+10
   4.00000000E-01   1.50000000E-01   5.00000000E-01  -1.55397140E+04   2.02295435E+00   2.36765344E+03   2.36765344E+03   1.52435137E+01   5.17109095E+03   0.00000000E+00   3.30513984E+00   0.00000000E+00   3.30000000E+10
   5.00000000E-01   1.50000000E-01   5.00000000E-01  -1.19687567E+04   1.39640084E+03   5.58990327E+03   5.58990327E+03   1.39975397E+03   3.98735016E+03   0.00000000E+00   8.38282036E-01   0.00000000E+00   3.30000000E+10
   6.00000000E-01   1.50000000E-01   5.00000000E-01  -4.62985965E+03   4.62482474E+03   6.35129944E+03   6.27876389E+03   4.55267698E+03   1.54302803E+03   0.00000000E+00   9.69466482E-02   0.00000000E+00   3.30000000E+10
   7.00000000E-01   1.50000000E-01   5.00000000E-01  -4.51947292E+03   7.08226727E+03   6.62190412E+03   1.33812050E+03   1.79849648E+03   1.50648242E+03   0.00000000E+00   3.20549585E-03   0.00000000E+00   3.30000000E+10
   8.00000000E-01   1.50000000E-01   5.00000000E-01  -4.51945556E+03   7.49985303E+03   6.20162692E+03   4.17186564E+02   1.71541841E+03   1.50648136E+03   0.00000000E+00   1.43399433E-03   0.00000000E+00   3.30000000E+10
   9.00000000E-01   1.50000000E-01   5.00000000E-01  -4.51945363E+03   7.56625617E+03   6.10606949E+03   2.52016323E+02   1.71220781E+03   1.50648134E+03   0.00000000E+00   1.20236677E-03   0.00000000E+00   3.30000000E+10
   1.00000000E+00   1.50000000E-01   5.00000000E-01  -4.51945226E+03   7.61582276E+03   6.03037363E+03   1.25092964E+02   1.71054623E+03   1.50648133E+03   0.00000000E+00   1.03424505E-03   0.00000000E+00   3.30000000E+10
   1.10000000E+00   1.50000000E-01   5.00000000E-01  -4.51945169E+03   7.63653159E+03   5.99905905E+03   7.24157506E+01   1.70989215E+03   1.50648132E+03   0.00000000E+00   9.65054053E-04   0.00000000E+00   3.30000000E+10
   1.20000000E+00   1.50000000E-01   5.00000000E-01  -4.51945129E+03   7.65192633E+03   5.97570339E+03   3.31847130E+01   1.70941131E+03   1.50648133E+03   0.00000000E+00   9.13351384E-04   0.00000000E+00   3.30000000E+10
   1.30000000E+00   1.50000000E-01   5.00000000E-01  -4.51945111E+03   7.65896394E+03   5.96491825E+03   1.51412161E+01   1.70919047E+03   1.50648133E+03   0.00000000E+00   8.89469090E-04   0.00000000E+00   3.30000000E+10
   1.40000000E+00   1.50000000E-01   5.00000000E-01  -4.51945102E+03   7.66140868E+03   5.96177081E+03   9.48487002E+00   1.70912626E+03   1.50648132E+03   0.00000000E+00   8.82426230E-04   0.00000000E+00   3.30000000E+10
   1.50000000E+00   1.50000000E-01   5.00000000E-01  -4.51945098E+03   7.66306107E+03   5.95933465E+03   5.34478722E+00   1.70907471E+03   1.50648132E+03   0.00000000E+00   8.76879218E-04   0.00000000E+00   3.30000000E+10
   1.60000000E+00   1.50000000E-01   5.00000000E-01  -4.51945096E+03   7.66401342E+03   5.95783862E+03   2.86555112E+00   1.70904385E+03   1.50648132E+03   0.00000000E+00   8.73529998E-04   0.00000000E+00   3.30000000E+10
   1.70000000E+00   1.50000000E-01   5.00000000E-01  -4.51945094E+03   7.66454813E+03   5.95711398E+03   1.59145303E+00   1.70902909E+03   1.50648132E+03   0.00000000E+00   8.71910899E-04   0.00000000E+00   3.30000000E+10
   1.80000000E+00   1.50000000E-01   5.00000000E-01  -4.51945093E+03   7.66485386E+03   5.95658394E+03   7.44658388E-01   1.70901807E+03   1.50648132E+03   0.00000000E+00   8.70732260E-04   0.00000000E+00   3.30000000E+10
   1.90000000E+00   1.50000000E-01   5.00000000E-01  -4.51945093E+03   7.66504401E+03   5.95638264E+03   3.49087075E-01   1.70901394E+03   1.50648132E+03   0.00000000E+00   8.70274628E-04   0.00000000E+00   3.30000000E+10
   2.00000000E+00   1.50000000E-01   5.00000000E-01  -4.51945093E+03   7.66510085E+03   5.95624208E+03   1.48900652E-01   1.70901115E+03   1.50648132E+03   0.00000000E+00   8.69991308E-04   0.00000000E+00   3.30000000E+10
   2.10000000E+00   1.50000000E-01   5.00000000E-01  -4.51945092E+03   7.66515468E+03   5.95622797E+03   8.05569989E-02   1.70901075E+03   1.50648132E+03   0.00000000E+00   8.69972151E-04   0.00000000E+00   3.30000000E+10
   2.20000000E+00   1.50000000E-01   5.00000000E-01  -4.51945092E+03   7.66520099E+03   5.95624969E+03   5.64274075E-02   1.70901121E+03   1.50648132E+03   0.00000000E+00   8.70038112E-04   0.00000000E+00   3.30000000E+10
   2.30000000E+00   1.50000000E-01   5.00000000E-01  -4.51945092E+03   7.66523282E+03   5.95627014E+03   4.53185489E-02   1.70901148E+03   1.50648132E+03   0.00000000E+00   8.70079574E-04   0.00000000E+00   3.30000000E+10
   2.40000000E+00   1.50000000E-01   5.00000000E-01  -4.51945092E+03   7.66523242E+03   5.95625006E+03   2.53922038E-02   1.70901124E+03   1.50648132E+03   0.00000000E+00   8.70079069E-04   0.00000000E+00   3.30000000E+10
   2.50000000E+00   1.50000000E-01   5.00000000E-01  -4.51945092E+03   7.66525225E+03   5.95626746E+03   2.32842074E-02   1.70901155E+03   1.50648132E+03   0.00000000E+00   8.70127119E-04   0.00000000E+00   3.30000000E+10
   2.60000000E+00   1.50000000E-01   5.00000000E-01  -4.51945092E+03   7.66526175E+03   5.95627600E+03   2.24415272E-02   1.70901168E+03   1.50648132E+03   0.00000000E+00   8.70144164E-04   0.00000000E+00   3.30000000E+10
   2.70000000E+00   1.50000000E-01   5.00000000E-01  -4.51945091E+03   7.66529030E+03   5.95630308E+03   2.15416515E-02   1.70901224E+03   1.50648132E+03   0.00000000E+00   8.70207471E-04   0.00000000E+00   3.30000000E+10
   2.80000000E+00   1.50000000E-01   5.00000000E-01  -4.51945091E+03   7.66530069E+03   5.95631177E+03   1.98620138E-02   1.70901225E+03   1.50648132E+03   0.00000000E+00   8.70216569E-04   0.00000000E+00   3.30000000E+10
   2.90000000E+00   1.50000000E-01   5.00000000E-01  -4.51945091E+03   7.66529904E+03   5.95630731E+03   1.68966311E-02   1.70901211E+03   1.50648132E+03   0.00000000E+00   8.70207771E-04   0.00000000E+00   3.30000000E+10
   2.97500000E+00   1.50000000E-01   5.00000000E-01  -4.51945091E+03   7.66529897E+03   5.95630237E+03   1.19935899E-02   1.70901208E+03   1.50648132E+03   0.00000000E+00   8.70211008E-04   0.00000000E+00   3.30000000E+10
   2.50000000E-02   2.00000000E-01   5.00000000E-01  -1.77482225E+04   0.00000000E+00   0.00000000E+00   6.13090430E+01   3.40929678E+02   5.71944223E+03   3.06545215E+01   8.52324196E+01   0.00000000E+00   3.30000000E+10
   1.00000000E-01   2.00000000E-01   5.00000000E-01  -1.77514769E+04   0.00000000E+00   3.06526550E+03   3.06526550E+03   2.48541746E+01   5.90058951E+03   0.00000000E+00   6.21354365E+00   0.00000000E+00   3.30000000E+10
   2.00000000E-01   2.00000000E-01   5.00000000E-01  -1.85742778E+04   0.00000000E+00   2.38824473E+03   2.38824473E+03   1.61201128E+01   6.18067918E+03   0.00000000E+00   4.03002820E+00   0.00000000E+00   3.30000000E+10
   3.00000000E-01   2.00000000E-01   5.00000000E-01  -1.44528005E+04   1.10926263E+00   3.84802344E+03   3.84802344E+03   9.48162626E+00   4.81201858E+03   0.00000000E+00   2.09309091E+00   0.00000000E+00   3.30000000E+10
   4.00000000E-01   2.00000000E-01   5.00000000E-01  -1.21120391E+04   8.01911211E+02   5.26760555E+03   5.26760555E+03   8.05383871E+02   4.03503125E+03   0.00000000E+00   8.68165004E-01   0.00000000E+00   3.30000000E+10
   5.00000000E-01   2.00000000E-01   5.00000000E-01  -6.04567612E+03   3.89688675E+03   5.94591560E+03   5.94591560E+03   3.89786291E+03   2.01457460E+03   0.00000000E+00   2.44039126E-01   0.00000000E+00   3.30000000E+10
   6.00000000E-01   2.00000000E-01   5.00000000E-01  -4.52225915E+03   4.95396329E+03   6.81348603E+03   5.88373707E+03   4.02440946E+03   1.50728963E+03   0.00000000E+00   4.87829819E-02   0.00000000E+00   3.30000000E+10
   7.00000000E-01   2.00000000E-01   5.00000000E-01  -4.51946995E+03   7.06349228E+03   6.72948586E+03   1.44141988E+03   1.77543879E+03   1.50648166E+03   0.00000000E+00   3.12287265E-03   0.00000000E+00   3.30000000E+10
   8.00000000E-01   2.00000000E-01   5.00000000E-01  -4.51945590E+03   7.48724510E+03   6.21973278E+03   4.48628085E+02   1.71614632E+03   1.50648136E+03   0.00000000E+00   1.47746993E-03   0.00000000E+00   3.30000000E+10