 TITLE = "Total Component Concentration in Minerals (mol/m^3 PM)" 
VARIABLES = "X"          "Y"              "Z"            "H+"             "CO3--"          "Ca++"           "SO4--"          "Fe++"           "Al+++"          "K+"             "O2(aq)"         "Na+"            "Tracer"        
 ZONE I=          31 , J=          41 , K=           1  F=POINT
   2.50000000E-02   1.25000000E-02   5.00000000E-01  -1.84078727E+04   2.19540604E+00   0.00000000E+00   1.12174105E+02   4.78575187E+02   5.87445810E+03   5.60870527E+01   1.19094945E+02   0.00000000E+00   3.30000000E+10
   1.00000000E-01   1.25000000E-02   5.00000000E-01  -1.14600132E+04   2.11142057E+03   4.67640682E+03   4.67640682E+03   2.11443793E+03   3.81799282E+03   0.00000000E+00   7.54340539E-01   0.00000000E+00   3.30000000E+10
   2.00000000E-01   1.25000000E-02   5.00000000E-01  -4.52770711E+03   3.09332616E+03   6.00785174E+03   5.90292766E+03   2.98863852E+03   1.50907808E+03   0.00000000E+00   5.91101622E-02   0.00000000E+00   3.30000000E+10
   3.00000000E-01   1.25000000E-02   5.00000000E-01  -4.60230289E+03   3.70397088E+03   6.18550810E+03   6.07668995E+03   3.59552561E+03   1.53385237E+03   0.00000000E+00   9.32236438E-02   0.00000000E+00   3.30000000E+10
   4.00000000E-01   1.25000000E-02   5.00000000E-01  -5.45669041E+03   4.14551001E+03   6.06041287E+03   6.06041287E+03   4.14627455E+03   1.81838711E+03   0.00000000E+00   1.91133508E-01   0.00000000E+00   3.30000000E+10
   5.00000000E-01   1.25000000E-02   5.00000000E-01  -4.52238514E+03   4.59146226E+03   6.90537073E+03   6.13569766E+03   3.82195671E+03   1.50735004E+03   0.00000000E+00   4.18782632E-02   0.00000000E+00   3.30000000E+10
   6.00000000E-01   1.25000000E-02   5.00000000E-01  -4.51950564E+03   6.20901345E+03   7.61640264E+03   3.41849136E+03   2.01113053E+03   1.50648297E+03   0.00000000E+00   7.09210453E-03   0.00000000E+00   3.30000000E+10
   7.00000000E-01   1.25000000E-02   5.00000000E-01  -4.51946579E+03   7.16815016E+03   6.69755923E+03   1.26912341E+03   1.73972497E+03   1.50648152E+03   0.00000000E+00   2.65476325E-03   0.00000000E+00   3.30000000E+10
   8.00000000E-01   1.25000000E-02   5.00000000E-01  -4.51945506E+03   7.51656494E+03   6.18302677E+03   3.80691950E+02   1.71423562E+03   1.50648135E+03   0.00000000E+00   1.37461984E-03   0.00000000E+00   3.30000000E+10
   9.00000000E-01   1.25000000E-02   5.00000000E-01  -4.51945294E+03   7.59086603E+03   6.06837466E+03   1.88858996E+02   1.71135484E+03   1.50648133E+03   0.00000000E+00   1.11797008E-03   0.00000000E+00   3.30000000E+10
   1.00000000E+00   1.25000000E-02   5.00000000E-01  -4.51945196E+03   7.62636346E+03   6.01440659E+03   9.82469842E+01   1.71020785E+03   1.50648132E+03   0.00000000E+00   9.98909418E-04   0.00000000E+00   3.30000000E+10
   1.10000000E+00   1.25000000E-02   5.00000000E-01  -4.51945149E+03   7.64392242E+03   5.98796234E+03   5.36979325E+01   1.70966177E+03   1.50648132E+03   0.00000000E+00   9.40446119E-04   0.00000000E+00   3.30000000E+10
   1.20000000E+00   1.25000000E-02   5.00000000E-01  -4.51945122E+03   7.65382032E+03   5.97314104E+03   2.86746712E+01   1.70935759E+03   1.50648132E+03   0.00000000E+00   9.07579386E-04   0.00000000E+00   3.30000000E+10
   1.30000000E+00   1.25000000E-02   5.00000000E-01  -4.51945107E+03   7.65971601E+03   5.96431745E+03   1.37746627E+01   1.70917677E+03   1.50648132E+03   0.00000000E+00   8.87967104E-04   0.00000000E+00   3.30000000E+10
   1.40000000E+00   1.25000000E-02   5.00000000E-01  -4.51945098E+03   7.66308858E+03   5.95923928E+03   5.21978546E+00   1.70907259E+03   1.50648132E+03   0.00000000E+00   8.76653318E-04   0.00000000E+00   3.30000000E+10
   1.50000000E+00   1.25000000E-02   5.00000000E-01  -4.51945094E+03   7.66439944E+03   5.95731460E+03   1.94474427E+00   1.70903307E+03   1.50648132E+03   0.00000000E+00   8.72349395E-04   0.00000000E+00   3.30000000E+10
   1.60000000E+00   1.25000000E-02   5.00000000E-01  -4.51945093E+03   7.66488549E+03   5.95661851E+03   7.48233696E-01   1.70901870E+03   1.50648132E+03   0.00000000E+00   8.70786152E-04   0.00000000E+00   3.30000000E+10
   1.70000000E+00   1.25000000E-02   5.00000000E-01  -4.51945092E+03   7.66506450E+03   5.95637738E+03   3.23039432E-01   1.70901365E+03   1.50648132E+03   0.00000000E+00   8.70241591E-04   0.00000000E+00   3.30000000E+10
   1.80000000E+00   1.25000000E-02   5.00000000E-01  -4.51945092E+03   7.66514078E+03   5.95629217E+03   1.59760451E-01   1.70901184E+03   1.50648132E+03   0.00000000E+00   8.70054318E-04   0.00000000E+00   3.30000000E+10
   1.90000000E+00   1.25000000E-02   5.00000000E-01  -4.51945092E+03   7.66518262E+03   5.95628285E+03   1.08277069E-01   1.70901153E+03   1.50648132E+03   0.00000000E+00   8.70024392E-04   0.00000000E+00   3.30000000E+10
   2.00000000E+00   1.25000000E-02   5.00000000E-01  -4.51945092E+03   7.66520140E+03   5.95627920E+03   8.56860359E-02   1.70901137E+03   1.50648132E+03   0.00000000E+00   8.70017952E-04   0.00000000E+00   3.30000000E+10
   2.10000000E+00   1.25000000E-02   5.00000000E-01  -4.51945092E+03   7.66520444E+03   5.95627253E+03   7.58487371E-02   1.70901124E+03   1.50648132E+03   0.00000000E+00   8.70018861E-04   0.00000000E+00   3.30000000E+10
   2.20000000E+00   1.25000000E-02   5.00000000E-01  -4.51945092E+03   7.66519447E+03   5.95625630E+03   6.93980414E-02   1.70901104E+03   1.50648132E+03   0.00000000E+00   8.70015995E-04   0.00000000E+00   3.30000000E+10
   2.30000000E+00   1.25000000E-02   5.00000000E-01  -4.51945092E+03   7.66520457E+03   5.95626183E+03   6.49976483E-02   1.70901121E+03   1.50648132E+03   0.00000000E+00   8.70042034E-04   0.00000000E+00   3.30000000E+10
   2.40000000E+00   1.25000000E-02   5.00000000E-01  -4.51945091E+03   7.66523742E+03   5.95629030E+03   6.11946833E-02   1.70901180E+03   1.50648132E+03   0.00000000E+00   8.70105597E-04   0.00000000E+00   3.30000000E+10
   2.50000000E+00   1.25000000E-02   5.00000000E-01  -4.51945091E+03   7.66525506E+03   5.95630279E+03   5.61573774E-02   1.70901191E+03   1.50648132E+03   0.00000000E+00   8.70130732E-04   0.00000000E+00   3.30000000E+10
   2.60000000E+00   1.25000000E-02   5.00000000E-01  -4.51945091E+03   7.66525951E+03   5.95629935E+03   4.81952497E-02   1.70901184E+03   1.50648132E+03   0.00000000E+00   8.70136604E-04   0.00000000E+00   3.30000000E+10
   2.70000000E+00   1.25000000E-02   5.00000000E-01  -4.51945092E+03   7.66525275E+03   5.95627358E+03   2.88875905E-02   1.70901154E+03   1.50648132E+03   0.00000000E+00   8.70117890E-04   0.00000000E+00   3.30000000E+10
   2.80000000E+00   1.25000000E-02   5.00000000E-01  -4.51945092E+03   7.66524712E+03   5.95626489E+03   2.57525373E-02   1.70901146E+03   1.50648132E+03   0.00000000E+00   8.70121867E-04   0.00000000E+00   3.30000000E+10
   2.90000000E+00   1.25000000E-02   5.00000000E-01  -4.51945092E+03   7.66526277E+03   5.95627817E+03   2.37164154E-02   1.70901179E+03   1.50648132E+03   0.00000000E+00   8.70168465E-04   0.00000000E+00   3.30000000E+10
   2.97500000E+00   1.25000000E-02   5.00000000E-01  -4.51945091E+03   7.66528829E+03   5.95630183E+03   2.23475600E-02   1.70901229E+03   1.50648132E+03   0.00000000E+00   8.70226891E-04   0.00000000E+00   3.30000000E+10
   2.50000000E-02   5.00000000E-02   5.00000000E-01  -1.71429766E+04   5.49707670E+01   2.83011659E+03   2.83208318E+03   1.97657648E+02   5.62018425E+03   9.83294413E-01   3.56717203E+01   0.00000000E+00   3.30000000E+10
   1.00000000E-01   5.00000000E-02   5.00000000E-01  -9.03506405E+03   2.13378067E+03   5.29077211E+03   5.29077211E+03   2.13667464E+03   3.00975870E+03   0.00000000E+00   7.23492546E-01   0.00000000E+00   3.30000000E+10
   2.00000000E-01   5.00000000E-02   5.00000000E-01  -1.18285428E+04   1.87864081E+03   5.10336207E+03   5.10336207E+03   1.88201771E+03   3.94059633E+03   0.00000000E+00   8.44222979E-01   0.00000000E+00   3.30000000E+10
   3.00000000E-01   5.00000000E-02   5.00000000E-01  -1.25896599E+04   1.48378939E+03   5.31999105E+03   5.31999105E+03   1.48702893E+03   4.19439359E+03   0.00000000E+00   8.09885766E-01   0.00000000E+00   3.30000000E+10
   4.00000000E-01   5.00000000E-02   5.00000000E-01  -1.33415602E+04   1.01010998E+03   5.34452755E+03   5.34452755E+03   1.01302457E+03   4.44524368E+03   0.00000000E+00   7.28646820E-01   0.00000000E+00   3.30000000E+10
   5.00000000E-01   5.00000000E-02   5.00000000E-01  -5.99145695E+03   3.91897401E+03   5.89200985E+03   5.89200985E+03   3.92003835E+03   1.99644276E+03   0.00000000E+00   2.66084540E-01   0.00000000E+00   3.30000000E+10
   6.00000000E-01   5.00000000E-02   5.00000000E-01  -4.52287304E+03   4.68416922E+03   6.74413710E+03   6.11637689E+03   4.05659447E+03   1.50750071E+03   0.00000000E+00   4.63631373E-02   0.00000000E+00   3.30000000E+10
   7.00000000E-01   5.00000000E-02   5.00000000E-01  -4.51948595E+03   6.69364636E+03   7.14387891E+03   2.31257398E+03   1.86236100E+03   1.50648227E+03   0.00000000E+00   4.89373103E-03   0.00000000E+00   3.30000000E+10
   8.00000000E-01   5.00000000E-02   5.00000000E-01  -4.51946153E+03   7.30417111E+03   6.49521952E+03   9.18365061E+02   1.72732524E+03   1.50648145E+03   0.00000000E+00   2.14950201E-03   0.00000000E+00   3.30000000E+10
   9.00000000E-01   5.00000000E-02   5.00000000E-01  -4.51945526E+03   7.50919229E+03   6.19419788E+03   3.99405431E+02   1.71440544E+03   1.50648135E+03   0.00000000E+00   1.40021243E-03   0.00000000E+00   3.30000000E+10
   1.00000000E+00   5.00000000E-02   5.00000000E-01  -4.51945246E+03   7.60884365E+03   6.04113950E+03   1.43071758E+02   1.71078014E+03   1.50648133E+03   0.00000000E+00   1.05792113E-03   0.00000000E+00   3.30000000E+10
   1.10000000E+00   5.00000000E-02   5.00000000E-01  -4.51945142E+03   7.64695166E+03   5.98327107E+03   4.58828109E+01   1.70956712E+03   1.50648133E+03   0.00000000E+00   9.30058202E-04   0.00000000E+00   3.30000000E+10
   1.20000000E+00   5.00000000E-02   5.00000000E-01  -4.51945112E+03   7.65775931E+03   5.96720872E+03   1.86822771E+01   1.70923645E+03   1.50648132E+03   0.00000000E+00   8.94423349E-04   0.00000000E+00   3.30000000E+10
   1.30000000E+00   5.00000000E-02   5.00000000E-01  -4.51945101E+03   7.66179470E+03   5.96125618E+03   8.57188208E+00   1.70911393E+03   1.50648132E+03   0.00000000E+00   8.81138329E-04   0.00000000E+00   3.30000000E+10
   1.40000000E+00   5.00000000E-02   5.00000000E-01  -4.51945096E+03   7.66354398E+03   5.95866605E+03   4.17918190E+00   1.70906061E+03   1.50648132E+03   0.00000000E+00   8.75341838E-04   0.00000000E+00   3.30000000E+10
   1.50000000E+00   5.00000000E-02   5.00000000E-01  -4.51945094E+03   7.66432526E+03   5.95755033E+03   2.25921721E+00   1.70903764E+03   1.50648132E+03   0.00000000E+00   8.72839364E-04   0.00000000E+00   3.30000000E+10
   1.60000000E+00   5.00000000E-02   5.00000000E-01  -4.51945093E+03   7.66475158E+03   5.95689319E+03   1.16214610E+00   1.70902403E+03   1.50648132E+03   0.00000000E+00   8.71363121E-04   0.00000000E+00   3.30000000E+10
   1.70000000E+00   5.00000000E-02   5.00000000E-01  -4.51945093E+03   7.66498242E+03   5.95647992E+03   5.09725314E-01   1.70901571E+03   1.50648132E+03   0.00000000E+00   8.70464971E-04   0.00000000E+00   3.30000000E+10
   1.80000000E+00   5.00000000E-02   5.00000000E-01  -4.51945092E+03   7.66509571E+03   5.95631210E+03   2.25178509E-01   1.70901227E+03   1.50648132E+03   0.00000000E+00   8.70099288E-04   0.00000000E+00   3.30000000E+10
   1.90000000E+00   5.00000000E-02   5.00000000E-01  -4.51945092E+03   7.66515857E+03   5.95632718E+03   1.77485844E-01   1.70901236E+03   1.50648132E+03   0.00000000E+00   8.70100559E-04   0.00000000E+00   3.30000000E+10
   2.00000000E+00   5.00000000E-02   5.00000000E-01  -4.51945092E+03   7.66516668E+03   5.95627903E+03   1.20321161E-01   1.70901145E+03   1.50648132E+03   0.00000000E+00   8.70011869E-04   0.00000000E+00   3.30000000E+10
   2.10000000E+00   5.00000000E-02   5.00000000E-01  -4.51945092E+03   7.66516478E+03   5.95625158E+03   9.42202008E-02   1.70901090E+03   1.50648132E+03   0.00000000E+00   8.69962440E-04   0.00000000E+00   3.30000000E+10
   2.20000000E+00   5.00000000E-02   5.00000000E-01  -4.51945092E+03   7.66520001E+03   5.95627353E+03   8.14893711E-02   1.70901145E+03   1.50648132E+03   0.00000000E+00   8.70019214E-04   0.00000000E+00   3.30000000E+10
   2.30000000E+00   5.00000000E-02   5.00000000E-01  -4.51945092E+03   7.66519906E+03   5.95626379E+03   7.23525075E-02   1.70901110E+03   1.50648132E+03   0.00000000E+00   8.70001777E-04   0.00000000E+00   3.30000000E+10
   2.40000000E+00   5.00000000E-02   5.00000000E-01  -4.51945092E+03   7.66518806E+03   5.95624464E+03   6.39669325E-02   1.70901087E+03   1.50648132E+03   0.00000000E+00   8.69995026E-04   0.00000000E+00   3.30000000E+10
   2.50000000E+00   5.00000000E-02   5.00000000E-01  -4.51945092E+03   7.66520555E+03   5.95625148E+03   5.36087962E-02   1.70901115E+03   1.50648132E+03   0.00000000E+00   8.70045216E-04   0.00000000E+00   3.30000000E+10
   2.60000000E+00   5.00000000E-02   5.00000000E-01  -4.51945092E+03   7.66522871E+03   5.95625889E+03   3.80561217E-02   1.70901136E+03   1.50648132E+03   0.00000000E+00   8.70087873E-04   0.00000000E+00   3.30000000E+10
   2.70000000E+00   5.00000000E-02   5.00000000E-01  -4.51945092E+03   7.66524949E+03   5.95626763E+03   2.62332360E-02   1.70901157E+03   1.50648132E+03   0.00000000E+00   8.70126797E-04   0.00000000E+00   3.30000000E+10
   2.80000000E+00   5.00000000E-02   5.00000000E-01  -4.51945092E+03   7.66524124E+03   5.95625414E+03   2.08196910E-02   1.70901140E+03   1.50648132E+03   0.00000000E+00   8.70129446E-04   0.00000000E+00   3.30000000E+10
   2.90000000E+00   5.00000000E-02   5.00000000E-01  -4.51945092E+03   7.66526673E+03   5.95627018E+03   1.17078687E-02   1.70901174E+03   1.50648132E+03   0.00000000E+00   8.70176968E-04   0.00000000E+00   3.30000000E+10
   2.97500000E+00   5.00000000E-02   5.00000000E-01  -4.51945091E+03   7.66529281E+03   5.95629411E+03   9.99307478E-03   1.70901218E+03   1.50648132E+03   0.00000000E+00   8.70226059E-04   0.00000000E+00   3.30000000E+10
   2.50000000E-02   1.00000000E-01   5.00000000E-01  -9.94715196E+03   5.70574359E-01   0.00000000E+00   4.67742055E+02   1.24296719E+03   2.72132394E+03   2.33871027E+02   3.10599154E+02   0.00000000E+00   3.30000000E+10
   1.00000000E-01   1.00000000E-01   5.00000000E-01  -2.03165440E+04   7.40129830E-01   0.00000000E+00   4.39867354E-02   1.50143404E+02   6.67260114E+03   2.19933677E-02   3.73508185E+01   0.00000000E+00   3.30000000E+10
   2.00000000E-01   1.00000000E-01   5.00000000E-01  -1.82222293E+04   2.66640080E+00   1.24164569E+03   1.24164569E+03   2.86522309E+01   6.05675253E+03   0.00000000E+00   6.49645752E+00   0.00000000E+00   3.30000000E+10
   3.00000000E-01   1.00000000E-01   5.00000000E-01  -1.48172980E+04   2.44340181E+01   1.67845790E+03   1.67845790E+03   3.92690409E+01   4.92920933E+03   0.00000000E+00   3.70875572E+00   0.00000000E+00   3.30000000E+10
   4.00000000E-01   1.00000000E-01   5.00000000E-01  -1.37758258E+04   1.46432254E+02   4.88383337E+03   4.88383337E+03   1.53134661E+02   4.58747366E+03   0.00000000E+00   1.67560177E+00   0.00000000E+00   3.30000000E+10
   5.00000000E-01   1.00000000E-01   5.00000000E-01  -1.27876060E+04   7.65333800E+02   5.64907349E+03   5.64907349E+03   7.68362303E+02   4.26051634E+03   0.00000000E+00   7.57125717E-01   0.00000000E+00   3.30000000E+10
   6.00000000E-01   1.00000000E-01   5.00000000E-01  -5.61861845E+03   4.25333263E+03   6.21022839E+03   6.21022839E+03   4.25413690E+03   1.87233664E+03   0.00000000E+00   2.01067477E-01   0.00000000E+00   3.30000000E+10
   7.00000000E-01   1.00000000E-01   5.00000000E-01  -4.51957017E+03   6.41903307E+03   7.17041071E+03   2.71876745E+03   1.96741824E+03   1.50650443E+03   0.00000000E+00   7.11018474E-03   0.00000000E+00   3.30000000E+10
   8.00000000E-01   1.00000000E-01   5.00000000E-01  -4.51946620E+03   7.15549013E+03   6.68243803E+03   1.26616307E+03   1.73922599E+03   1.50648152E+03   0.00000000E+00   2.70364440E-03   0.00000000E+00   3.30000000E+10
   9.00000000E-01   1.00000000E-01   5.00000000E-01  -4.51945689E+03   7.45464000E+03   6.27690091E+03   5.38992181E+02   1.71673764E+03   1.50648138E+03   0.00000000E+00   1.59490489E-03   0.00000000E+00   3.30000000E+10
   1.00000000E+00   1.00000000E-01   5.00000000E-01  -4.51945257E+03   7.60527442E+03   6.04667525E+03   1.52316095E+02   1.71091954E+03   1.50648134E+03   0.00000000E+00   1.07047542E-03   0.00000000E+00   3.30000000E+10
   1.10000000E+00   1.00000000E-01   5.00000000E-01  -4.51945128E+03   7.65240021E+03   5.97497012E+03   3.19641608E+01   1.70939790E+03   1.50648133E+03   0.00000000E+00   9.11738116E-04   0.00000000E+00   3.30000000E+10
   1.20000000E+00   1.00000000E-01   5.00000000E-01  -4.51945105E+03   7.66061766E+03   5.96284503E+03   1.13711757E+01   1.70914734E+03   1.50648132E+03   0.00000000E+00   8.84758018E-04   0.00000000E+00   3.30000000E+10
   1.30000000E+00   1.00000000E-01   5.00000000E-01  -4.51945097E+03   7.66337325E+03   5.95884007E+03   4.52786481E+00   1.70906455E+03   1.50648132E+03   0.00000000E+00   8.75773441E-04   0.00000000E+00   3.30000000E+10
   1.40000000E+00   1.00000000E-01   5.00000000E-01  -4.51945096E+03   7.66389420E+03   5.95803991E+03   3.19030986E+00   1.70904809E+03   1.50648132E+03   0.00000000E+00   8.73988696E-04   0.00000000E+00   3.30000000E+10
   1.50000000E+00   1.00000000E-01   5.00000000E-01  -4.51945094E+03   7.66450182E+03   5.95723562E+03   1.76164150E+00   1.70903133E+03   1.50648132E+03   0.00000000E+00   8.72158126E-04   0.00000000E+00   3.30000000E+10
   1.60000000E+00   1.00000000E-01   5.00000000E-01  -4.51945093E+03   7.66484196E+03   5.95680453E+03   9.81369972E-01   1.70902228E+03   1.50648132E+03   0.00000000E+00   8.71168039E-04   0.00000000E+00   3.30000000E+10
   1.70000000E+00   1.00000000E-01   5.00000000E-01  -4.51945093E+03   7.66495858E+03   5.95659234E+03   6.48169046E-01   1.70901790E+03   1.50648132E+03   0.00000000E+00   8.70699024E-04   0.00000000E+00   3.30000000E+10
   1.80000000E+00   1.00000000E-01   5.00000000E-01  -4.51945092E+03   7.66507195E+03   5.95649796E+03   4.38440743E-01   1.70901591E+03   1.50648132E+03   0.00000000E+00   8.70471384E-04   0.00000000E+00   3.30000000E+10
   1.90000000E+00   1.00000000E-01   5.00000000E-01  -4.51945092E+03   7.66512867E+03   5.95639577E+03   2.77213586E-01   1.70901360E+03   1.50648132E+03   0.00000000E+00   8.70234643E-04   0.00000000E+00   3.30000000E+10
   2.00000000E+00   1.00000000E-01   5.00000000E-01  -4.51945092E+03   7.66511980E+03   5.95623230E+03   1.19814888E-01   1.70901079E+03   1.50648132E+03   0.00000000E+00   8.69953505E-04   0.00000000E+00   3.30000000E+10
   2.10000000E+00   1.00000000E-01   5.00000000E-01  -4.51945092E+03   7.66515898E+03   5.95622418E+03   7.24327781E-02   1.70901071E+03   1.50648132E+03   0.00000000E+00   8.69967341E-04   0.00000000E+00   3.30000000E+10
   2.20000000E+00   1.00000000E-01   5.00000000E-01  -4.51945092E+03   7.66519974E+03   5.95625905E+03   6.70193887E-02   1.70901119E+03   1.50648132E+03   0.00000000E+00   8.70015443E-04   0.00000000E+00   3.30000000E+10
   2.30000000E+00   1.00000000E-01   5.00000000E-01  -4.51945092E+03   7.66522592E+03   5.95627996E+03   6.20874544E-02   1.70901152E+03   1.50648132E+03   0.00000000E+00   8.70061181E-04   0.00000000E+00   3.30000000E+10
   2.40000000E+00   1.00000000E-01   5.00000000E-01  -4.51945092E+03   7.66516979E+03   5.95620899E+03   4.59594156E-02   1.70901024E+03   1.50648132E+03   0.00000000E+00   8.69947183E-04   0.00000000E+00   3.30000000E+10
   2.50000000E+00   1.00000000E-01   5.00000000E-01  -4.51945092E+03   7.66520548E+03   5.95622764E+03   2.97018739E-02   1.70901102E+03   1.50648132E+03   0.00000000E+00   8.70038105E-04   0.00000000E+00   3.30000000E+10
   2.60000000E+00   1.00000000E-01   5.00000000E-01  -4.51945091E+03   7.66525815E+03   5.95627482E+03   2.50305946E-02   1.70901185E+03   1.50648132E+03   0.00000000E+00   8.70138343E-04   0.00000000E+00   3.30000000E+10
   2.70000000E+00   1.00000000E-01   5.00000000E-01  -4.51945092E+03   7.66525961E+03   5.95627618E+03   2.47176870E-02   1.70901163E+03   1.50648132E+03   0.00000000E+00   8.70134191E-04   0.00000000E+00   3.30000000E+10
   2.80000000E+00   1.00000000E-01   5.00000000E-01  -4.51945092E+03   7.66524488E+03   5.95625492E+03   1.79284356E-02   1.70901137E+03   1.50648132E+03   0.00000000E+00   8.70127484E-04   0.00000000E+00   3.30000000E+10
   2.90000000E+00   1.00000000E-01   5.00000000E-01  -4.51945091E+03   7.66528881E+03   5.95629190E+03   1.16483518E-02   1.70901204E+03   1.50648132E+03   0.00000000E+00   8.70207142E-04   0.00000000E+00   3.30000000E+10
   2.97500000E+00   1.00000000E-01   5.00000000E-01  -4.51945091E+03   7.66531561E+03   5.95631504E+03   8.42451505E-03   1.70901248E+03   1.50648132E+03   0.00000000E+00   8.70257473E-04   0.00000000E+00   3.30000000E+10
   2.50000000E-02   1.50000000E-01   5.00000000E-01  -5.66595361E+03   5.66389787E-01   0.00000000E+00   9.26511973E+02   1.39691081E+03   1.42101091E+03   4.63255986E+02   3.49086106E+02   0.00000000E+00   3.30000000E+10
   1.00000000E-01   1.50000000E-01   5.00000000E-01  -1.57708782E+04   5.86034311E-01   0.00000000E+00   9.10417734E-02   9.88203273E+02   4.59859342E+03   4.55208867E-02   2.46904310E+02   0.00000000E+00   3.30000000E+10
   2.00000000E-01   1.50000000E-01   5.00000000E-01  -1.86852399E+04   6.33235409E-01   0.00000000E+00   0.00000000E+00   4.53350661E+02   5.92660167E+03   0.00000000E+00   1.13179356E+02   0.00000000E+00   3.30000000E+10
   3.00000000E-01   1.50000000E-01   5.00000000E-01  -1.84449754E+04   2.51846821E+00   0.00000000E+00   0.00000000E+00   1.26255698E+02   6.06583364E+03   0.00000000E+00   3.09343074E+01   0.00000000E+00   3.30000000E+10
   4.00000000E-01   1.50000000E-01   5.00000000E-01  -1.53469947E+04   7.76275216E+01   2.38041525E+03   2.38041525E+03   9.05092074E+01   5.10707710E+03   0.00000000E+00   3.22042144E+00   0.00000000E+00   3.30000000E+10
   5.00000000E-01   1.50000000E-01   5.00000000E-01  -1.19536258E+04   1.40941707E+03   5.58861807E+03   5.58861807E+03   1.41270650E+03   3.98234897E+03   0.00000000E+00   8.22359592E-01   0.00000000E+00   3.30000000E+10
   6.00000000E-01   1.50000000E-01   5.00000000E-01  -4.62964506E+03   4.73037449E+03   6.36916614E+03   6.04707464E+03   4.40865709E+03   1.54296562E+03   0.00000000E+00   9.35246329E-02   0.00000000E+00   3.30000000E+10
   7.00000000E-01   1.50000000E-01   5.00000000E-01  -4.51947273E+03   7.08873675E+03   6.61660753E+03   1.32560105E+03   1.79774300E+03   1.50648242E+03   0.00000000E+00   3.18300170E-03   0.00000000E+00   3.30000000E+10
   8.00000000E-01   1.50000000E-01   5.00000000E-01  -4.51945556E+03   7.49999932E+03   6.20142658E+03   4.16834089E+02   1.71541256E+03   1.50648136E+03   0.00000000E+00   1.43351344E-03   0.00000000E+00   3.30000000E+10
   9.00000000E-01   1.50000000E-01   5.00000000E-01  -4.51945363E+03   7.56626016E+03   6.10606364E+03   2.52006357E+02   1.71220769E+03   1.50648134E+03   0.00000000E+00   1.20235364E-03   0.00000000E+00   3.30000000E+10
   1.00000000E+00   1.50000000E-01   5.00000000E-01  -4.51945226E+03   7.61582289E+03   6.03037344E+03   1.25092641E+02   1.71054623E+03   1.50648133E+03   0.00000000E+00   1.03424462E-03   0.00000000E+00   3.30000000E+10
   1.10000000E+00   1.50000000E-01   5.00000000E-01  -4.51945169E+03   7.63653159E+03   5.99905904E+03   7.24157386E+01   1.70989215E+03   1.50648132E+03   0.00000000E+00   9.65054037E-04   0.00000000E+00   3.30000000E+10
   1.20000000E+00   1.50000000E-01   5.00000000E-01  -4.51945129E+03   7.65192633E+03   5.97570339E+03   3.31847126E+01   1.70941131E+03   1.50648133E+03   0.00000000E+00   9.13351310E-04   0.00000000E+00   3.30000000E+10
   1.30000000E+00   1.50000000E-01   5.00000000E-01  -4.51945111E+03   7.65896394E+03   5.96491825E+03   1.51412161E+01   1.70919047E+03   1.50648133E+03   0.00000000E+00   8.89469086E-04   0.00000000E+00   3.30000000E+10
   1.40000000E+00   1.50000000E-01   5.00000000E-01  -4.51945102E+03   7.66140868E+03   5.96177081E+03   9.48487002E+00   1.70912626E+03   1.50648132E+03   0.00000000E+00   8.82426230E-04   0.00000000E+00   3.30000000E+10
   1.50000000E+00   1.50000000E-01   5.00000000E-01  -4.51945098E+03   7.66306107E+03   5.95933465E+03   5.34478722E+00   1.70907471E+03   1.50648132E+03   0.00000000E+00   8.76879218E-04   0.00000000E+00   3.30000000E+10
   1.60000000E+00   1.50000000E-01   5.00000000E-01  -4.51945096E+03   7.66401342E+03   5.95783862E+03   2.86555112E+00   1.70904385E+03   1.50648132E+03   0.00000000E+00   8.73529998E-04   0.00000000E+00   3.30000000E+10
   1.70000000E+00   1.50000000E-01   5.00000000E-01  -4.51945094E+03   7.66454813E+03   5.95711398E+03   1.59145303E+00   1.70902909E+03   1.50648132E+03   0.00000000E+00   8.71910899E-04   0.00000000E+00   3.30000000E+10
   1.80000000E+00   1.50000000E-01   5.00000000E-01  -4.51945093E+03   7.66485386E+03   5.95658394E+03   7.44658389E-01   1.70901807E+03   1.50648132E+03   0.00000000E+00   8.70732260E-04   0.00000000E+00   3.30000000E+10
   1.90000000E+00   1.50000000E-01   5.00000000E-01  -4.51945093E+03   7.66504401E+03   5.95638264E+03   3.49087076E-01   1.70901394E+03   1.50648132E+03   0.00000000E+00   8.70274628E-04   0.00000000E+00   3.30000000E+10
   2.00000000E+00   1.50000000E-01   5.00000000E-01  -4.51945093E+03   7.66510085E+03   5.95624208E+03   1.48900653E-01   1.70901115E+03   1.50648132E+03   0.00000000E+00   8.69991308E-04   0.00000000E+00   3.30000000E+10
   2.10000000E+00   1.50000000E-01   5.00000000E-01  -4.51945092E+03   7.66515468E+03   5.95622797E+03   8.05569995E-02   1.70901075E+03   1.50648132E+03   0.00000000E+00   8.69972151E-04   0.00000000E+00   3.30000000E+10
   2.20000000E+00   1.50000000E-01   5.00000000E-01  -4.51945092E+03   7.66520099E+03   5.95624969E+03   5.64274080E-02   1.70901121E+03   1.50648132E+03   0.00000000E+00   8.70038112E-04   0.00000000E+00   3.30000000E+10
   2.30000000E+00   1.50000000E-01   5.00000000E-01  -4.51945092E+03   7.66523282E+03   5.95627014E+03   4.53185494E-02   1.70901148E+03   1.50648132E+03   0.00000000E+00   8.70079574E-04   0.00000000E+00   3.30000000E+10
   2.40000000E+00   1.50000000E-01   5.00000000E-01  -4.51945092E+03   7.66523242E+03   5.95625006E+03   2.53922041E-02   1.70901124E+03   1.50648132E+03   0.00000000E+00   8.70079069E-04   0.00000000E+00   3.30000000E+10
   2.50000000E+00   1.50000000E-01   5.00000000E-01  -4.51945092E+03   7.66525225E+03   5.95626746E+03   2.32842077E-02   1.70901155E+03   1.50648132E+03   0.00000000E+00   8.70127119E-04   0.00000000E+00   3.30000000E+10
   2.60000000E+00   1.50000000E-01   5.00000000E-01  -4.51945092E+03   7.66526175E+03   5.95627600E+03   2.24415276E-02   1.70901168E+03   1.50648132E+03   0.00000000E+00   8.70144164E-04   0.00000000E+00   3.30000000E+10
   2.70000000E+00   1.50000000E-01   5.00000000E-01  -4.51945091E+03   7.66529030E+03   5.95630308E+03   2.15416518E-02   1.70901224E+03   1.50648132E+03   0.00000000E+00   8.70207471E-04   0.00000000E+00   3.30000000E+10
   2.80000000E+00   1.50000000E-01   5.00000000E-01  -4.51945091E+03   7.66530069E+03   5.95631177E+03   1.98620141E-02   1.70901225E+03   1.50648132E+03   0.00000000E+00   8.70216569E-04   0.00000000E+00   3.30000000E+10
   2.90000000E+00   1.50000000E-01   5.00000000E-01  -4.51945091E+03   7.66529904E+03   5.95630731E+03   1.68966314E-02   1.70901211E+03   1.50648132E+03   0.00000000E+00   8.70207770E-04   0.00000000E+00   3.30000000E+10
   2.97500000E+00   1.50000000E-01   5.00000000E-01  -4.51945091E+03   7.66529897E+03   5.95630237E+03   1.19935901E-02   1.70901208E+03   1.50648132E+03   0.00000000E+00   8.70211008E-04   0.00000000E+00   3.30000000E+10
   2.50000000E-02   2.00000000E-01   5.00000000E-01  -1.77717238E+04   7.50454414E-01   0.00000000E+00   6.04670647E+01   3.36222222E+02   5.73049363E+03   3.02335323E+01   8.38679420E+01   0.00000000E+00   3.30000000E+10
   1.00000000E-01   2.00000000E-01   5.00000000E-01  -1.76594892E+04   2.27082300E+01   3.21497026E+03   3.21497026E+03   4.73870770E+01   5.87004385E+03   0.00000000E+00   6.16971174E+00   0.00000000E+00   3.30000000E+10
   2.00000000E-01   2.00000000E-01   5.00000000E-01  -1.85074982E+04   7.49638708E+00   2.42601136E+03   2.42601136E+03   2.36212366E+01   6.15841617E+03   0.00000000E+00   4.03121238E+00   0.00000000E+00   3.30000000E+10
   3.00000000E-01   2.00000000E-01   5.00000000E-01  -1.42630650E+04   8.60077728E+01   3.85822396E+03   3.85822396E+03   9.40348346E+01   4.74900361E+03   0.00000000E+00   2.00676544E+00   0.00000000E+00   3.30000000E+10
   4.00000000E-01   2.00000000E-01   5.00000000E-01  -1.20756941E+04   8.56216869E+02   5.26898672E+03   5.26898672E+03   8.59542925E+02   4.02301398E+03   0.00000000E+00   8.31513861E-01   0.00000000E+00   3.30000000E+10
   5.00000000E-01   2.00000000E-01   5.00000000E-01  -6.04523917E+03   3.85737824E+03   5.93774876E+03   5.93774876E+03   3.85835064E+03   2.01443146E+03   0.00000000E+00   2.43099612E-01   0.00000000E+00   3.30000000E+10
   6.00000000E-01   2.00000000E-01   5.00000000E-01  -4.52165562E+03   5.24620933E+03   6.91062657E+03   5.21713816E+03   3.55287372E+03   1.50711667E+03   0.00000000E+00   3.81998953E-02   0.00000000E+00   3.30000000E+10
   7.00000000E-01   2.00000000E-01   5.00000000E-01  -4.51946955E+03   7.07622653E+03   6.71532329E+03   1.41180240E+03   1.77271794E+03   1.50648165E+03   0.00000000E+00   3.07516912E-03   0.00000000E+00   3.30000000E+10
   8.00000000E-01   2.00000000E-01   5.00000000E-01  -4.51945589E+03   7.48762675E+03   6.21919560E+03   4.47690506E+02   1.71612756E+03   1.50648136E+03   0.00000000E+00   1.47621094E-03   0.00000000E+00   3.30000000E+10