 TITLE = "Total Component Concentration in Minerals (mol/m^3 PM)" 
VARIABLES = "X"          "Y"              "Z"            "H+"             "CO3--"          "Ca++"           "SO4--"          "Fe++"           "Al+++"          "K+"             "O2(aq)"         "Na+"            "Tracer"        
 ZONE I=          31 , J=          41 , K=           1  F=POINT
   2.50000000E-02   1.25000000E-02   5.00000000E-01  -1.70658737E+04   5.75037410E+02   2.86953454E+02   3.86753332E+02   1.01631353E+03   5.44336928E+03   5.28134254E+01   1.11775774E+02   0.00000000E+00   3.30000000E+10
   1.00000000E-01   1.25000000E-02   5.00000000E-01  -1.11202390E+04   2.39727008E+03   4.65572610E+03   4.15639816E+03   1.90050523E+03   3.70503762E+03   0.00000000E+00   6.40772880E-01   0.00000000E+00   3.30000000E+10
   2.00000000E-01   1.25000000E-02   5.00000000E-01  -4.52349450E+03   4.38652011E+03   6.24961404E+03   4.02714183E+03   2.16416594E+03   1.50775281E+03   0.00000000E+00   2.95082117E-02   0.00000000E+00   3.30000000E+10
   3.00000000E-01   1.25000000E-02   5.00000000E-01  -4.56207809E+03   5.06974467E+03   6.55986116E+03   3.83960297E+03   2.34965434E+03   1.52058079E+03   0.00000000E+00   4.19664186E-02   0.00000000E+00   3.30000000E+10
   4.00000000E-01   1.25000000E-02   5.00000000E-01  -4.53192821E+03   5.96232180E+03   6.94644174E+03   3.10627199E+03   2.12222218E+03   1.51059598E+03   0.00000000E+00   1.75325356E-02   0.00000000E+00   3.30000000E+10
   5.00000000E-01   1.25000000E-02   5.00000000E-01  -4.51949149E+03   6.73253803E+03   6.95622600E+03   2.07698596E+03   1.85331825E+03   1.50648366E+03   0.00000000E+00   5.06418835E-03   0.00000000E+00   3.30000000E+10
   6.00000000E-01   1.25000000E-02   5.00000000E-01  -4.51946463E+03   7.24674404E+03   6.55222135E+03   1.04602272E+03   1.74055533E+03   1.50648160E+03   0.00000000E+00   2.48017853E-03   0.00000000E+00   3.30000000E+10
   7.00000000E-01   1.25000000E-02   5.00000000E-01  -4.51945628E+03   7.48158379E+03   6.23660882E+03   4.71821758E+02   1.71680279E+03   1.50648138E+03   0.00000000E+00   1.51686569E-03   0.00000000E+00   3.30000000E+10
   8.00000000E-01   1.25000000E-02   5.00000000E-01  -4.51945322E+03   7.58225067E+03   6.08248044E+03   2.12001575E+02   1.71177641E+03   1.50648134E+03   0.00000000E+00   1.15057459E-03   0.00000000E+00   3.30000000E+10
   9.00000000E-01   1.25000000E-02   5.00000000E-01  -4.51945245E+03   7.60916132E+03   6.04071574E+03   1.42322727E+02   1.71077253E+03   1.50648133E+03   0.00000000E+00   1.05696517E-03   0.00000000E+00   3.30000000E+10
   1.00000000E+00   1.25000000E-02   5.00000000E-01  -4.51945179E+03   7.63281393E+03   6.00475036E+03   8.19421724E+01   1.71000966E+03   1.50648132E+03   0.00000000E+00   9.77543919E-04   0.00000000E+00   3.30000000E+10
   1.10000000E+00   1.25000000E-02   5.00000000E-01  -4.51945142E+03   7.64641624E+03   5.98425264E+03   4.74185517E+01   1.70958588E+03   1.50648132E+03   0.00000000E+00   9.32207853E-04   0.00000000E+00   3.30000000E+10
   1.20000000E+00   1.25000000E-02   5.00000000E-01  -4.51945120E+03   7.65473983E+03   5.97177817E+03   2.63644196E+01   1.70932970E+03   1.50648132E+03   0.00000000E+00   9.04545173E-04   0.00000000E+00   3.30000000E+10
   1.30000000E+00   1.25000000E-02   5.00000000E-01  -4.51945106E+03   7.66000548E+03   5.96388926E+03   1.30482364E+01   1.70916800E+03   1.50648132E+03   0.00000000E+00   8.87012209E-04   0.00000000E+00   3.30000000E+10
   1.40000000E+00   1.25000000E-02   5.00000000E-01  -4.51945098E+03   7.66315404E+03   5.95914254E+03   5.05560515E+00   1.70907061E+03   1.50648132E+03   0.00000000E+00   8.76437386E-04   0.00000000E+00   3.30000000E+10
   1.50000000E+00   1.25000000E-02   5.00000000E-01  -4.51945094E+03   7.66441347E+03   5.95729388E+03   1.90957728E+00   1.70903265E+03   1.50648132E+03   0.00000000E+00   8.72303091E-04   0.00000000E+00   3.30000000E+10
   1.60000000E+00   1.25000000E-02   5.00000000E-01  -4.51945093E+03   7.66488847E+03   5.95661410E+03   7.40758191E-01   1.70901861E+03   1.50648132E+03   0.00000000E+00   8.70776305E-04   0.00000000E+00   3.30000000E+10
   1.70000000E+00   1.25000000E-02   5.00000000E-01  -4.51945092E+03   7.66506517E+03   5.95637639E+03   3.21367636E-01   1.70901363E+03   1.50648132E+03   0.00000000E+00   8.70239379E-04   0.00000000E+00   3.30000000E+10
   1.80000000E+00   1.25000000E-02   5.00000000E-01  -4.51945092E+03   7.66514092E+03   5.95629196E+03   1.59391177E-01   1.70901184E+03   1.50648132E+03   0.00000000E+00   8.70053817E-04   0.00000000E+00   3.30000000E+10
   1.90000000E+00   1.25000000E-02   5.00000000E-01  -4.51945092E+03   7.66518266E+03   5.95628279E+03   1.08180786E-01   1.70901153E+03   1.50648132E+03   0.00000000E+00   8.70024265E-04   0.00000000E+00   3.30000000E+10
   2.00000000E+00   1.25000000E-02   5.00000000E-01  -4.51945092E+03   7.66520141E+03   5.95627918E+03   8.56556488E-02   1.70901137E+03   1.50648132E+03   0.00000000E+00   8.70017904E-04   0.00000000E+00   3.30000000E+10
   2.10000000E+00   1.25000000E-02   5.00000000E-01  -4.51945092E+03   7.66520444E+03   5.95627252E+03   7.58390849E-02   1.70901124E+03   1.50648132E+03   0.00000000E+00   8.70018849E-04   0.00000000E+00   3.30000000E+10
   2.20000000E+00   1.25000000E-02   5.00000000E-01  -4.51945092E+03   7.66519447E+03   5.95625630E+03   6.93950454E-02   1.70901104E+03   1.50648132E+03   0.00000000E+00   8.70015980E-04   0.00000000E+00   3.30000000E+10
   2.30000000E+00   1.25000000E-02   5.00000000E-01  -4.51945092E+03   7.66520457E+03   5.95626183E+03   6.49965272E-02   1.70901121E+03   1.50648132E+03   0.00000000E+00   8.70042030E-04   0.00000000E+00   3.30000000E+10
   2.40000000E+00   1.25000000E-02   5.00000000E-01  -4.51945091E+03   7.66523742E+03   5.95629030E+03   6.11942373E-02   1.70901180E+03   1.50648132E+03   0.00000000E+00   8.70105593E-04   0.00000000E+00   3.30000000E+10
   2.50000000E+00   1.25000000E-02   5.00000000E-01  -4.51945091E+03   7.66525506E+03   5.95630279E+03   5.61572164E-02   1.70901191E+03   1.50648132E+03   0.00000000E+00   8.70130725E-04   0.00000000E+00   3.30000000E+10
   2.60000000E+00   1.25000000E-02   5.00000000E-01  -4.51945091E+03   7.66525951E+03   5.95629935E+03   4.81952005E-02   1.70901184E+03   1.50648132E+03   0.00000000E+00   8.70136574E-04   0.00000000E+00   3.30000000E+10
   2.70000000E+00   1.25000000E-02   5.00000000E-01  -4.51945092E+03   7.66525275E+03   5.95627358E+03   2.88875811E-02   1.70901154E+03   1.50648132E+03   0.00000000E+00   8.70117887E-04   0.00000000E+00   3.30000000E+10
   2.80000000E+00   1.25000000E-02   5.00000000E-01  -4.51945092E+03   7.66524712E+03   5.95626489E+03   2.57525369E-02   1.70901146E+03   1.50648132E+03   0.00000000E+00   8.70121865E-04   0.00000000E+00   3.30000000E+10
   2.90000000E+00   1.25000000E-02   5.00000000E-01  -4.51945092E+03   7.66526277E+03   5.95627817E+03   2.37164178E-02   1.70901179E+03   1.50648132E+03   0.00000000E+00   8.70168464E-04   0.00000000E+00   3.30000000E+10
   2.97500000E+00   1.25000000E-02   5.00000000E-01  -4.51945091E+03   7.66528829E+03   5.95630183E+03   2.23475628E-02   1.70901229E+03   1.50648132E+03   0.00000000E+00   8.70226891E-04   0.00000000E+00   3.30000000E+10
   2.50000000E-02   5.00000000E-02   5.00000000E-01  -1.44940272E+04   1.29123905E+03   3.47553063E+03   3.44296494E+03   1.36931413E+03   4.75752204E+03   1.79508796E-01   2.77499466E+01   0.00000000E+00   3.30000000E+10
   1.00000000E-01   5.00000000E-02   5.00000000E-01  -7.28180299E+03   3.63036267E+03   5.45856004E+03   3.97843348E+03   2.15142811E+03   2.42647299E+03   0.00000000E+00   2.98002297E-01   0.00000000E+00   3.30000000E+10
   2.00000000E-01   5.00000000E-02   5.00000000E-01  -1.00581305E+04   2.49826673E+03   5.07489918E+03   4.69746999E+03   2.12279449E+03   3.35140554E+03   0.00000000E+00   4.89234744E-01   0.00000000E+00   3.30000000E+10
   3.00000000E-01   5.00000000E-02   5.00000000E-01  -9.65770128E+03   2.82879587E+03   5.43700598E+03   4.60280376E+03   1.99617583E+03   3.21817897E+03   0.00000000E+00   3.95547157E-01   0.00000000E+00   3.30000000E+10
   4.00000000E-01   5.00000000E-02   5.00000000E-01  -7.55744334E+03   3.98373625E+03   5.86282196E+03   4.13073998E+03   2.25256117E+03   2.51854318E+03   0.00000000E+00   2.26724166E-01   0.00000000E+00   3.30000000E+10
   5.00000000E-01   5.00000000E-02   5.00000000E-01  -4.54609635E+03   5.82778386E+03   6.66548784E+03   3.18472984E+03   2.34713945E+03   1.51528972E+03   0.00000000E+00   2.83966968E-02   0.00000000E+00   3.30000000E+10
   6.00000000E-01   5.00000000E-02   5.00000000E-01  -4.51950057E+03   6.68837478E+03   6.88702810E+03   2.10641232E+03   1.90778163E+03   1.50648511E+03   0.00000000E+00   5.65650350E-03   0.00000000E+00   3.30000000E+10
   7.00000000E-01   5.00000000E-02   5.00000000E-01  -4.51946655E+03   7.19422458E+03   6.60124073E+03   1.15590675E+03   1.74890141E+03   1.50648165E+03   0.00000000E+00   2.70080363E-03   0.00000000E+00   3.30000000E+10
   8.00000000E-01   5.00000000E-02   5.00000000E-01  -4.51945782E+03   7.42952936E+03   6.31293720E+03   6.02702423E+02   1.71930140E+03   1.50648140E+03   0.00000000E+00   1.70237847E-03   0.00000000E+00   3.30000000E+10
   9.00000000E-01   5.00000000E-02   5.00000000E-01  -4.51945424E+03   7.54582082E+03   6.13853769E+03   3.05772623E+02   1.71306086E+03   1.50648134E+03   0.00000000E+00   1.27596574E-03   0.00000000E+00   3.30000000E+10
   1.00000000E+00   5.00000000E-02   5.00000000E-01  -4.51945223E+03   7.61735078E+03   6.02829930E+03   1.21455810E+02   1.71051140E+03   1.50648133E+03   0.00000000E+00   1.02959012E-03   0.00000000E+00   3.30000000E+10
   1.10000000E+00   5.00000000E-02   5.00000000E-01  -4.51945137E+03   7.64865814E+03   5.98072634E+03   4.15795076E+01   1.70951500E+03   1.50648133E+03   0.00000000E+00   9.24416848E-04   0.00000000E+00   3.30000000E+10
   1.20000000E+00   5.00000000E-02   5.00000000E-01  -4.51945111E+03   7.65820900E+03   5.96654235E+03   1.75525851E+01   1.70922281E+03   1.50648132E+03   0.00000000E+00   8.92939633E-04   0.00000000E+00   3.30000000E+10
   1.30000000E+00   5.00000000E-02   5.00000000E-01  -4.51945101E+03   7.66192897E+03   5.96105766E+03   8.23502967E+00   1.70910986E+03   1.50648132E+03   0.00000000E+00   8.80695432E-04   0.00000000E+00   3.30000000E+10
   1.40000000E+00   5.00000000E-02   5.00000000E-01  -4.51945096E+03   7.66358562E+03   5.95860452E+03   4.07475250E+00   1.70905935E+03   1.50648132E+03   0.00000000E+00   8.75204468E-04   0.00000000E+00   3.30000000E+10
   1.50000000E+00   5.00000000E-02   5.00000000E-01  -4.51945094E+03   7.66433980E+03   5.95752884E+03   2.22274381E+00   1.70903720E+03   1.50648132E+03   0.00000000E+00   8.72791317E-04   0.00000000E+00   3.30000000E+10
   1.60000000E+00   5.00000000E-02   5.00000000E-01  -4.51945093E+03   7.66475616E+03   5.95688642E+03   1.15065486E+00   1.70902389E+03   1.50648132E+03   0.00000000E+00   8.71347993E-04   0.00000000E+00   3.30000000E+10
   1.70000000E+00   5.00000000E-02   5.00000000E-01  -4.51945093E+03   7.66498352E+03   5.95647829E+03   5.06958153E-01   1.70901567E+03   1.50648132E+03   0.00000000E+00   8.70461314E-04   0.00000000E+00   3.30000000E+10
   1.80000000E+00   5.00000000E-02   5.00000000E-01  -4.51945092E+03   7.66509591E+03   5.95631180E+03   2.24673090E-01   1.70901227E+03   1.50648132E+03   0.00000000E+00   8.70098614E-04   0.00000000E+00   3.30000000E+10
   1.90000000E+00   5.00000000E-02   5.00000000E-01  -4.51945092E+03   7.66515864E+03   5.95632708E+03   1.77306708E-01   1.70901235E+03   1.50648132E+03   0.00000000E+00   8.70100299E-04   0.00000000E+00   3.30000000E+10
   2.00000000E+00   5.00000000E-02   5.00000000E-01  -4.51945092E+03   7.66516670E+03   5.95627899E+03   1.20254772E-01   1.70901145E+03   1.50648132E+03   0.00000000E+00   8.70011772E-04   0.00000000E+00   3.30000000E+10
   2.10000000E+00   5.00000000E-02   5.00000000E-01  -4.51945092E+03   7.66516479E+03   5.95625156E+03   9.41927857E-02   1.70901090E+03   1.50648132E+03   0.00000000E+00   8.69962395E-04   0.00000000E+00   3.30000000E+10
   2.20000000E+00   5.00000000E-02   5.00000000E-01  -4.51945092E+03   7.66520002E+03   5.95627352E+03   8.14777791E-02   1.70901145E+03   1.50648132E+03   0.00000000E+00   8.70019197E-04   0.00000000E+00   3.30000000E+10
   2.30000000E+00   5.00000000E-02   5.00000000E-01  -4.51945092E+03   7.66519906E+03   5.95626379E+03   7.23485972E-02   1.70901110E+03   1.50648132E+03   0.00000000E+00   8.70001769E-04   0.00000000E+00   3.30000000E+10
   2.40000000E+00   5.00000000E-02   5.00000000E-01  -4.51945092E+03   7.66518806E+03   5.95624464E+03   6.39658557E-02   1.70901087E+03   1.50648132E+03   0.00000000E+00   8.69995025E-04   0.00000000E+00   3.30000000E+10
   2.50000000E+00   5.00000000E-02   5.00000000E-01  -4.51945092E+03   7.66520555E+03   5.95625148E+03   5.36085465E-02   1.70901115E+03   1.50648132E+03   0.00000000E+00   8.70045215E-04   0.00000000E+00   3.30000000E+10
   2.60000000E+00   5.00000000E-02   5.00000000E-01  -4.51945092E+03   7.66522871E+03   5.95625889E+03   3.80560734E-02   1.70901136E+03   1.50648132E+03   0.00000000E+00   8.70087871E-04   0.00000000E+00   3.30000000E+10
   2.70000000E+00   5.00000000E-02   5.00000000E-01  -4.51945092E+03   7.66524949E+03   5.95626763E+03   2.62332292E-02   1.70901157E+03   1.50648132E+03   0.00000000E+00   8.70126789E-04   0.00000000E+00   3.30000000E+10
   2.80000000E+00   5.00000000E-02   5.00000000E-01  -4.51945092E+03   7.66524124E+03   5.95625414E+03   2.08196925E-02   1.70901140E+03   1.50648132E+03   0.00000000E+00   8.70129446E-04   0.00000000E+00   3.30000000E+10
   2.90000000E+00   5.00000000E-02   5.00000000E-01  -4.51945092E+03   7.66526673E+03   5.95627018E+03   1.17078702E-02   1.70901174E+03   1.50648132E+03   0.00000000E+00   8.70176968E-04   0.00000000E+00   3.30000000E+10
   2.97500000E+00   5.00000000E-02   5.00000000E-01  -4.51945091E+03   7.66529281E+03   5.95629411E+03   9.99307622E-03   1.70901218E+03   1.50648132E+03   0.00000000E+00   8.70226059E-04   0.00000000E+00   3.30000000E+10
   2.50000000E-02   1.00000000E-01   5.00000000E-01  -1.10345850E+04   5.70770111E+02   5.77204059E+00   3.36441137E+02   1.70962888E+03   3.08332836E+03   1.68220569E+02   2.86157702E+02   0.00000000E+00   3.30000000E+10
   1.00000000E-01   1.00000000E-01   5.00000000E-01  -1.87506954E+04   5.81806510E+02   1.83130958E+03   1.82542023E+03   6.32643822E+02   6.21240625E+03   2.33434796E-02   1.41933374E+01   0.00000000E+00   3.30000000E+10
   2.00000000E-01   1.00000000E-01   5.00000000E-01  -1.67327742E+04   6.82528100E+02   2.38392834E+03   2.37507907E+03   6.85010655E+02   5.57003686E+03   0.00000000E+00   2.83295704E+00   0.00000000E+00   3.30000000E+10
   3.00000000E-01   1.00000000E-01   5.00000000E-01  -1.26300318E+04   1.10309031E+03   4.08566711E+03   4.04616007E+03   1.06881632E+03   4.20652191E+03   0.00000000E+00   1.30826266E+00   0.00000000E+00   3.30000000E+10
   4.00000000E-01   1.00000000E-01   5.00000000E-01  -1.03803492E+04   1.93336057E+03   5.07038203E+03   4.81966336E+03   1.68473955E+03   3.45871798E+03   0.00000000E+00   5.24411390E-01   0.00000000E+00   3.30000000E+10
   5.00000000E-01   1.00000000E-01   5.00000000E-01  -7.56759095E+03   3.49415210E+03   5.95369750E+03   4.82527274E+03   2.36665827E+03   2.52190969E+03   0.00000000E+00   2.32733943E-01   0.00000000E+00   3.30000000E+10
   6.00000000E-01   1.00000000E-01   5.00000000E-01  -4.53644035E+03   6.14377588E+03   6.83714755E+03   2.86569034E+03   2.17239510E+03   1.51209583E+03   0.00000000E+00   1.91078362E-02   0.00000000E+00   3.30000000E+10
   7.00000000E-01   1.00000000E-01   5.00000000E-01  -4.51947748E+03   6.94479051E+03   6.80914608E+03   1.65675625E+03   1.79241584E+03   1.50648239E+03   0.00000000E+00   3.78912659E-03   0.00000000E+00   3.30000000E+10
   8.00000000E-01   1.00000000E-01   5.00000000E-01  -4.51946232E+03   7.28631470E+03   6.50671026E+03   9.49399684E+02   1.72901307E+03   1.50648147E+03   0.00000000E+00   2.23708688E-03   0.00000000E+00   3.30000000E+10
   9.00000000E-01   1.00000000E-01   5.00000000E-01  -4.51945597E+03   7.48793841E+03   6.22683570E+03   4.54351295E+02   1.71545994E+03   1.50648137E+03   0.00000000E+00   1.48201653E-03   0.00000000E+00   3.30000000E+10
   1.00000000E+00   1.00000000E-01   5.00000000E-01  -4.51945242E+03   7.61076477E+03   6.03839508E+03   1.38372071E+02   1.71074597E+03   1.50648133E+03   0.00000000E+00   1.05222104E-03   0.00000000E+00   3.30000000E+10
   1.10000000E+00   1.00000000E-01   5.00000000E-01  -4.51945126E+03   7.65303818E+03   5.97402092E+03   3.03575806E+01   1.70937848E+03   1.50648133E+03   0.00000000E+00   9.09631604E-04   0.00000000E+00   3.30000000E+10
   1.20000000E+00   1.00000000E-01   5.00000000E-01  -4.51945105E+03   7.66075389E+03   5.96264345E+03   1.10292361E+01   1.70914321E+03   1.50648132E+03   0.00000000E+00   8.84308653E-04   0.00000000E+00   3.30000000E+10
   1.30000000E+00   1.00000000E-01   5.00000000E-01  -4.51945097E+03   7.66340887E+03   5.95878742E+03   4.43851355E+00   1.70906347E+03   1.50648132E+03   0.00000000E+00   8.75655902E-04   0.00000000E+00   3.30000000E+10
   1.40000000E+00   1.00000000E-01   5.00000000E-01  -4.51945096E+03   7.66390907E+03   5.95801794E+03   3.15301098E+00   1.70904764E+03   1.50648132E+03   0.00000000E+00   8.73939599E-04   0.00000000E+00   3.30000000E+10
   1.50000000E+00   1.00000000E-01   5.00000000E-01  -4.51945094E+03   7.66450745E+03   5.95722731E+03   1.74753529E+00   1.70903116E+03   1.50648132E+03   0.00000000E+00   8.72139553E-04   0.00000000E+00   3.30000000E+10
   1.60000000E+00   1.00000000E-01   5.00000000E-01  -4.51945093E+03   7.66484418E+03   5.95680126E+03   9.75811148E-01   1.70902221E+03   1.50648132E+03   0.00000000E+00   8.71160711E-04   0.00000000E+00   3.30000000E+10
   1.70000000E+00   1.00000000E-01   5.00000000E-01  -4.51945093E+03   7.66495954E+03   5.95659093E+03   6.45774822E-01   1.70901787E+03   1.50648132E+03   0.00000000E+00   8.70695859E-04   0.00000000E+00   3.30000000E+10
   1.80000000E+00   1.00000000E-01   5.00000000E-01  -4.51945092E+03   7.66507237E+03   5.95649733E+03   4.37378580E-01   1.70901590E+03   1.50648132E+03   0.00000000E+00   8.70469972E-04   0.00000000E+00   3.30000000E+10
   1.90000000E+00   1.00000000E-01   5.00000000E-01  -4.51945092E+03   7.66512883E+03   5.95639554E+03   2.76819662E-01   1.70901360E+03   1.50648132E+03   0.00000000E+00   8.70234121E-04   0.00000000E+00   3.30000000E+10
   2.00000000E+00   1.00000000E-01   5.00000000E-01  -4.51945092E+03   7.66511983E+03   5.95623226E+03   1.19750393E-01   1.70901079E+03   1.50648132E+03   0.00000000E+00   8.69953405E-04   0.00000000E+00   3.30000000E+10
   2.10000000E+00   1.00000000E-01   5.00000000E-01  -4.51945092E+03   7.66515899E+03   5.95622418E+03   7.24235017E-02   1.70901071E+03   1.50648132E+03   0.00000000E+00   8.69967285E-04   0.00000000E+00   3.30000000E+10
   2.20000000E+00   1.00000000E-01   5.00000000E-01  -4.51945092E+03   7.66519974E+03   5.95625905E+03   6.70156861E-02   1.70901119E+03   1.50648132E+03   0.00000000E+00   8.70015428E-04   0.00000000E+00   3.30000000E+10
   2.30000000E+00   1.00000000E-01   5.00000000E-01  -4.51945092E+03   7.66522592E+03   5.95627996E+03   6.20860727E-02   1.70901152E+03   1.50648132E+03   0.00000000E+00   8.70061178E-04   0.00000000E+00   3.30000000E+10
   2.40000000E+00   1.00000000E-01   5.00000000E-01  -4.51945092E+03   7.66516979E+03   5.95620899E+03   4.59589827E-02   1.70901024E+03   1.50648132E+03   0.00000000E+00   8.69947164E-04   0.00000000E+00   3.30000000E+10
   2.50000000E+00   1.00000000E-01   5.00000000E-01  -4.51945092E+03   7.66520548E+03   5.95622764E+03   2.97017337E-02   1.70901102E+03   1.50648132E+03   0.00000000E+00   8.70038102E-04   0.00000000E+00   3.30000000E+10
   2.60000000E+00   1.00000000E-01   5.00000000E-01  -4.51945091E+03   7.66525815E+03   5.95627482E+03   2.50305510E-02   1.70901185E+03   1.50648132E+03   0.00000000E+00   8.70138320E-04   0.00000000E+00   3.30000000E+10
   2.70000000E+00   1.00000000E-01   5.00000000E-01  -4.51945092E+03   7.66525961E+03   5.95627618E+03   2.47176801E-02   1.70901163E+03   1.50648132E+03   0.00000000E+00   8.70134189E-04   0.00000000E+00   3.30000000E+10
   2.80000000E+00   1.00000000E-01   5.00000000E-01  -4.51945092E+03   7.66524488E+03   5.95625492E+03   1.79284366E-02   1.70901137E+03   1.50648132E+03   0.00000000E+00   8.70127484E-04   0.00000000E+00   3.30000000E+10
   2.90000000E+00   1.00000000E-01   5.00000000E-01  -4.51945091E+03   7.66528881E+03   5.95629190E+03   1.16483526E-02   1.70901204E+03   1.50648132E+03   0.00000000E+00   8.70207141E-04   0.00000000E+00   3.30000000E+10
   2.97500000E+00   1.00000000E-01   5.00000000E-01  -4.51945091E+03   7.66531561E+03   5.95631504E+03   8.42451533E-03   1.70901248E+03   1.50648132E+03   0.00000000E+00   8.70257471E-04   0.00000000E+00   3.30000000E+10
   2.50000000E-02   1.50000000E-01   5.00000000E-01  -6.34505944E+03   5.70711761E+02   5.76723957E+00   6.88466344E+02   1.67173134E+03   1.72139511E+03   3.44233172E+02   2.76696704E+02   0.00000000E+00   3.30000000E+10
   1.00000000E-01   1.50000000E-01   5.00000000E-01  -1.60497420E+04   5.71155244E+02   5.78426226E+00   2.55793284E-02   1.39856286E+03   4.79446556E+03   1.27896642E-02   2.08297968E+02   0.00000000E+00   3.30000000E+10
   2.00000000E-01   1.50000000E-01   5.00000000E-01  -1.79839159E+04   5.73122441E+02   5.83555657E+00   1.73965305E-05   7.98111416E+02   5.84075561E+03   8.69826525E-06   5.77061330E+01   0.00000000E+00   3.30000000E+10
   3.00000000E-01   1.50000000E-01   5.00000000E-01  -1.72508415E+04   6.76755231E+02   6.59473406E+01   5.65485413E+01   7.11472309E+02   5.72086992E+03   0.00000000E+00   1.10289695E+01   0.00000000E+00   3.30000000E+10
   4.00000000E-01   1.50000000E-01   5.00000000E-01  -1.19671580E+04   1.79668017E+03   4.81792492E+03   4.51947300E+03   1.50174097E+03   3.98671086E+03   0.00000000E+00   8.78182431E-01   0.00000000E+00   3.30000000E+10
   5.00000000E-01   1.50000000E-01   5.00000000E-01  -6.14486612E+03   4.75019854E+03   6.22093445E+03   3.77279002E+03   2.30261971E+03   2.04791165E+03   0.00000000E+00   1.41398515E-01   0.00000000E+00   3.30000000E+10
   6.00000000E-01   1.50000000E-01   5.00000000E-01  -4.51972469E+03   6.77888971E+03   6.71425272E+03   1.78086721E+03   1.84552663E+03   1.50655994E+03   0.00000000E+00   5.60856294E-03   0.00000000E+00   3.30000000E+10
   7.00000000E-01   1.50000000E-01   5.00000000E-01  -4.51945784E+03   7.43845314E+03   6.26785225E+03   5.51496651E+02   1.72210431E+03   1.50648143E+03   0.00000000E+00   1.69410689E-03   0.00000000E+00   3.30000000E+10
   8.00000000E-01   1.50000000E-01   5.00000000E-01  -4.51945435E+03   7.54347357E+03   6.13979954E+03   3.09663068E+02   1.71334224E+03   1.50648135E+03   0.00000000E+00   1.28596246E-03   0.00000000E+00   3.30000000E+10
   9.00000000E-01   1.50000000E-01   5.00000000E-01  -4.51945329E+03   7.57876395E+03   6.08736720E+03   2.20401110E+02   1.71180250E+03   1.50648133E+03   0.00000000E+00   1.16077240E-03   0.00000000E+00   3.30000000E+10
   1.00000000E+00   1.50000000E-01   5.00000000E-01  -4.51945215E+03   7.61989223E+03   6.02429453E+03   1.14819359E+02   1.71042114E+03   1.50648133E+03   0.00000000E+00   1.02078149E-03   0.00000000E+00   3.30000000E+10
   1.10000000E+00   1.50000000E-01   5.00000000E-01  -4.51945165E+03   7.63814192E+03   5.99666419E+03   6.83616201E+01   1.70984319E+03   1.50648132E+03   0.00000000E+00   9.59737210E-04   0.00000000E+00   3.30000000E+10
   1.20000000E+00   1.50000000E-01   5.00000000E-01  -4.51945127E+03   7.65240710E+03   5.97499072E+03   3.19767074E+01   1.70939673E+03   1.50648133E+03   0.00000000E+00   9.11765118E-04   0.00000000E+00   3.30000000E+10
   1.30000000E+00   1.50000000E-01   5.00000000E-01  -4.51945110E+03   7.65911155E+03   5.96469987E+03   1.47707611E+01   1.70918600E+03   1.50648133E+03   0.00000000E+00   8.88982183E-04   0.00000000E+00   3.30000000E+10
   1.40000000E+00   1.50000000E-01   5.00000000E-01  -4.51945102E+03   7.66147196E+03   5.96167727E+03   9.32612317E+00   1.70912435E+03   1.50648132E+03   0.00000000E+00   8.82217470E-04   0.00000000E+00   3.30000000E+10
   1.50000000E+00   1.50000000E-01   5.00000000E-01  -4.51945098E+03   7.66308396E+03   5.95930082E+03   5.28736933E+00   1.70907402E+03   1.50648132E+03   0.00000000E+00   8.76803665E-04   0.00000000E+00   3.30000000E+10
   1.60000000E+00   1.50000000E-01   5.00000000E-01  -4.51945096E+03   7.66402107E+03   5.95782731E+03   2.84636019E+00   1.70904362E+03   1.50648132E+03   0.00000000E+00   8.73504729E-04   0.00000000E+00   3.30000000E+10
   1.70000000E+00   1.50000000E-01   5.00000000E-01  -4.51945094E+03   7.66455076E+03   5.95711009E+03   1.58485832E+00   1.70902901E+03   1.50648132E+03   0.00000000E+00   8.71902197E-04   0.00000000E+00   3.30000000E+10
   1.80000000E+00   1.50000000E-01   5.00000000E-01  -4.51945093E+03   7.66485458E+03   5.95658287E+03   7.42857649E-01   1.70901805E+03   1.50648132E+03   0.00000000E+00   8.70729870E-04   0.00000000E+00   3.30000000E+10
   1.90000000E+00   1.50000000E-01   5.00000000E-01  -4.51945093E+03   7.66504419E+03   5.95638238E+03   3.48640020E-01   1.70901394E+03   1.50648132E+03   0.00000000E+00   8.70274036E-04   0.00000000E+00   3.30000000E+10
   2.00000000E+00   1.50000000E-01   5.00000000E-01  -4.51945093E+03   7.66510088E+03   5.95624203E+03   1.48818173E-01   1.70901115E+03   1.50648132E+03   0.00000000E+00   8.69991196E-04   0.00000000E+00   3.30000000E+10
   2.10000000E+00   1.50000000E-01   5.00000000E-01  -4.51945092E+03   7.66515469E+03   5.95622797E+03   8.05453121E-02   1.70901075E+03   1.50648132E+03   0.00000000E+00   8.69972124E-04   0.00000000E+00   3.30000000E+10
   2.20000000E+00   1.50000000E-01   5.00000000E-01  -4.51945092E+03   7.66520099E+03   5.95624969E+03   5.64253720E-02   1.70901121E+03   1.50648132E+03   0.00000000E+00   8.70038089E-04   0.00000000E+00   3.30000000E+10
   2.30000000E+00   1.50000000E-01   5.00000000E-01  -4.51945092E+03   7.66523282E+03   5.95627014E+03   4.53179963E-02   1.70901148E+03   1.50648132E+03   0.00000000E+00   8.70079569E-04   0.00000000E+00   3.30000000E+10
   2.40000000E+00   1.50000000E-01   5.00000000E-01  -4.51945092E+03   7.66523242E+03   5.95625006E+03   2.53920845E-02   1.70901124E+03   1.50648132E+03   0.00000000E+00   8.70079052E-04   0.00000000E+00   3.30000000E+10
   2.50000000E+00   1.50000000E-01   5.00000000E-01  -4.51945092E+03   7.66525225E+03   5.95626746E+03   2.32841757E-02   1.70901155E+03   1.50648132E+03   0.00000000E+00   8.70127106E-04   0.00000000E+00   3.30000000E+10
   2.60000000E+00   1.50000000E-01   5.00000000E-01  -4.51945092E+03   7.66526175E+03   5.95627600E+03   2.24415179E-02   1.70901168E+03   1.50648132E+03   0.00000000E+00   8.70144161E-04   0.00000000E+00   3.30000000E+10
   2.70000000E+00   1.50000000E-01   5.00000000E-01  -4.51945091E+03   7.66529030E+03   5.95630308E+03   2.15416495E-02   1.70901224E+03   1.50648132E+03   0.00000000E+00   8.70207469E-04   0.00000000E+00   3.30000000E+10
   2.80000000E+00   1.50000000E-01   5.00000000E-01  -4.51945091E+03   7.66530069E+03   5.95631177E+03   1.98620144E-02   1.70901225E+03   1.50648132E+03   0.00000000E+00   8.70216568E-04   0.00000000E+00   3.30000000E+10
   2.90000000E+00   1.50000000E-01   5.00000000E-01  -4.51945091E+03   7.66529904E+03   5.95630731E+03   1.68966326E-02   1.70901211E+03   1.50648132E+03   0.00000000E+00   8.70207770E-04   0.00000000E+00   3.30000000E+10
   2.97500000E+00   1.50000000E-01   5.00000000E-01  -4.51945091E+03   7.66529897E+03   5.95630237E+03   1.19935912E-02   1.70901208E+03   1.50648132E+03   0.00000000E+00   8.70211007E-04   0.00000000E+00   3.30000000E+10
   2.50000000E-02   2.00000000E-01   5.00000000E-01  -1.70695478E+04   5.84340094E+02   1.91073428E+03   1.95219532E+03   8.21444353E+02   5.55152546E+03   2.36850312E+01   6.07533187E+01   0.00000000E+00   3.30000000E+10
   1.00000000E-01   2.00000000E-01   5.00000000E-01  -1.55740716E+04   1.03361028E+03   3.71566578E+03   3.70302881E+03   1.03241523E+03   5.18372925E+03   0.00000000E+00   2.86047883E+00   0.00000000E+00   3.30000000E+10
   2.00000000E-01   2.00000000E-01   5.00000000E-01  -1.66058853E+04   8.00658249E+02   3.03200581E+03   3.01664481E+03   7.92948166E+02   5.53019449E+03   0.00000000E+00   1.91273057E+00   0.00000000E+00   3.30000000E+10
   3.00000000E-01   2.00000000E-01   5.00000000E-01  -1.14232363E+04   1.47670873E+03   4.61530522E+03   4.50662841E+03   1.37132687E+03   3.80554882E+03   0.00000000E+00   8.23737210E-01   0.00000000E+00   3.30000000E+10
   4.00000000E-01   2.00000000E-01   5.00000000E-01  -7.91461949E+03   3.04014581E+03   5.52533422E+03   4.75963146E+03   2.27567505E+03   2.63738516E+03   0.00000000E+00   3.07999990E-01   0.00000000E+00   3.30000000E+10
   5.00000000E-01   2.00000000E-01   5.00000000E-01  -4.65254452E+03   5.42952394E+03   6.55429250E+03   3.67789604E+03   2.55332031E+03   1.55071962E+03   0.00000000E+00   4.82083406E-02   0.00000000E+00   3.30000000E+10
   6.00000000E-01   2.00000000E-01   5.00000000E-01  -4.51950353E+03   6.83449998E+03   6.78618205E+03   1.81975197E+03   1.86808941E+03   1.50648817E+03   0.00000000E+00   4.87850581E-03   0.00000000E+00   3.30000000E+10
   7.00000000E-01   2.00000000E-01   5.00000000E-01  -4.51946049E+03   7.35361118E+03   6.39231856E+03   7.68275143E+02   1.72957581E+03   1.50648147E+03   0.00000000E+00   2.01150081E-03   0.00000000E+00   3.30000000E+10
   8.00000000E-01   2.00000000E-01   5.00000000E-01  -4.51945441E+03   7.54060155E+03   6.14274481E+03   3.15791332E+02   1.71365326E+03   1.50648135E+03   0.00000000E+00   1.29568848E-03   0.00000000E+00   3.30000000E+10