 TITLE = "Total Component Concentration in Minerals (mol/m^3 PM)" 
VARIABLES = "X"          "Y"              "Z"            "H+"             "CO3--"          "Ca++"           "SO4--"          "Fe++"           "Al+++"          "K+"             "O2(aq)"         "Na+"            "Tracer"        
 ZONE I=          31 , J=          41 , K=           1  F=POINT
   2.50000000E-02   1.25000000E-02   5.00000000E-01  -1.81137315E+04   1.21076801E+02   0.00000000E+00   1.11708492E+02   5.95964605E+02   5.77717289E+03   5.58542462E+01   1.18721951E+02   0.00000000E+00   3.30000000E+10
   1.00000000E-01   1.25000000E-02   5.00000000E-01  -1.13690134E+04   2.13787794E+03   4.66803478E+03   4.66803478E+03   2.14073311E+03   3.78776769E+03   0.00000000E+00   7.13792056E-01   0.00000000E+00   3.30000000E+10
   2.00000000E-01   1.25000000E-02   5.00000000E-01  -4.52678821E+03   3.49057040E+03   6.08070174E+03   5.22381154E+03   2.63387283E+03   1.50880099E+03   0.00000000E+00   4.81560192E-02   0.00000000E+00   3.30000000E+10
   3.00000000E-01   1.25000000E-02   5.00000000E-01  -4.60168439E+03   4.00140269E+03   6.23900660E+03   5.56012322E+03   3.32285950E+03   1.53366800E+03   0.00000000E+00   8.50484058E-02   0.00000000E+00   3.30000000E+10
   4.00000000E-01   1.25000000E-02   5.00000000E-01  -5.45492185E+03   4.12475575E+03   6.06094912E+03   5.97959948E+03   4.04415811E+03   1.81780595E+03   0.00000000E+00   1.88000717E-01   0.00000000E+00   3.30000000E+10
   5.00000000E-01   1.25000000E-02   5.00000000E-01  -4.52121301E+03   5.03773425E+03   7.07141981E+03   5.17603430E+03   3.14245300E+03   1.50700150E+03   0.00000000E+00   2.60640046E-02   0.00000000E+00   3.30000000E+10
   6.00000000E-01   1.25000000E-02   5.00000000E-01  -4.51949587E+03   6.46406296E+03   7.37245735E+03   2.83884225E+03   1.93047180E+03   1.50648265E+03   0.00000000E+00   5.98772796E-03   0.00000000E+00   3.30000000E+10
   7.00000000E-01   1.25000000E-02   5.00000000E-01  -4.51946443E+03   7.21536676E+03   6.62814076E+03   1.14886285E+03   1.73609882E+03   1.50648150E+03   0.00000000E+00   2.49008270E-03   0.00000000E+00   3.30000000E+10
   8.00000000E-01   1.25000000E-02   5.00000000E-01  -4.51945496E+03   7.52007661E+03   6.17769421E+03   3.71721097E+02   1.71410895E+03   1.50648135E+03   0.00000000E+00   1.36292454E-03   0.00000000E+00   3.30000000E+10
   9.00000000E-01   1.25000000E-02   5.00000000E-01  -4.51945294E+03   7.59107940E+03   6.06805514E+03   1.88319511E+02   1.71134824E+03   1.50648133E+03   0.00000000E+00   1.11726595E-03   0.00000000E+00   3.30000000E+10
   1.00000000E+00   1.25000000E-02   5.00000000E-01  -4.51945196E+03   7.62638183E+03   6.01437926E+03   9.82007201E+01   1.71020729E+03   1.50648132E+03   0.00000000E+00   9.98848822E-04   0.00000000E+00   3.30000000E+10
   1.10000000E+00   1.25000000E-02   5.00000000E-01  -4.51945149E+03   7.64392424E+03   5.98795964E+03   5.36933454E+01   1.70966171E+03   1.50648132E+03   0.00000000E+00   9.40440098E-04   0.00000000E+00   3.30000000E+10
   1.20000000E+00   1.25000000E-02   5.00000000E-01  -4.51945122E+03   7.65382049E+03   5.97314079E+03   2.86742477E+01   1.70935758E+03   1.50648132E+03   0.00000000E+00   9.07578830E-04   0.00000000E+00   3.30000000E+10
   1.30000000E+00   1.25000000E-02   5.00000000E-01  -4.51945107E+03   7.65971602E+03   5.96431743E+03   1.37746310E+01   1.70917677E+03   1.50648132E+03   0.00000000E+00   8.87966993E-04   0.00000000E+00   3.30000000E+10
   1.40000000E+00   1.25000000E-02   5.00000000E-01  -4.51945098E+03   7.66308858E+03   5.95923928E+03   5.21978383E+00   1.70907259E+03   1.50648132E+03   0.00000000E+00   8.76653312E-04   0.00000000E+00   3.30000000E+10
   1.50000000E+00   1.25000000E-02   5.00000000E-01  -4.51945094E+03   7.66439944E+03   5.95731460E+03   1.94474420E+00   1.70903307E+03   1.50648132E+03   0.00000000E+00   8.72349361E-04   0.00000000E+00   3.30000000E+10
   1.60000000E+00   1.25000000E-02   5.00000000E-01  -4.51945093E+03   7.66488549E+03   5.95661851E+03   7.48233696E-01   1.70901870E+03   1.50648132E+03   0.00000000E+00   8.70786152E-04   0.00000000E+00   3.30000000E+10
   1.70000000E+00   1.25000000E-02   5.00000000E-01  -4.51945092E+03   7.66506450E+03   5.95637738E+03   3.23039434E-01   1.70901365E+03   1.50648132E+03   0.00000000E+00   8.70241591E-04   0.00000000E+00   3.30000000E+10
   1.80000000E+00   1.25000000E-02   5.00000000E-01  -4.51945092E+03   7.66514078E+03   5.95629217E+03   1.59760453E-01   1.70901184E+03   1.50648132E+03   0.00000000E+00   8.70054318E-04   0.00000000E+00   3.30000000E+10
   1.90000000E+00   1.25000000E-02   5.00000000E-01  -4.51945092E+03   7.66518262E+03   5.95628285E+03   1.08277070E-01   1.70901153E+03   1.50648132E+03   0.00000000E+00   8.70024392E-04   0.00000000E+00   3.30000000E+10
   2.00000000E+00   1.25000000E-02   5.00000000E-01  -4.51945092E+03   7.66520140E+03   5.95627920E+03   8.56860374E-02   1.70901137E+03   1.50648132E+03   0.00000000E+00   8.70017952E-04   0.00000000E+00   3.30000000E+10
   2.10000000E+00   1.25000000E-02   5.00000000E-01  -4.51945092E+03   7.66520444E+03   5.95627253E+03   7.58487386E-02   1.70901124E+03   1.50648132E+03   0.00000000E+00   8.70018861E-04   0.00000000E+00   3.30000000E+10
   2.20000000E+00   1.25000000E-02   5.00000000E-01  -4.51945092E+03   7.66519447E+03   5.95625630E+03   6.93980430E-02   1.70901104E+03   1.50648132E+03   0.00000000E+00   8.70015995E-04   0.00000000E+00   3.30000000E+10
   2.30000000E+00   1.25000000E-02   5.00000000E-01  -4.51945092E+03   7.66520457E+03   5.95626183E+03   6.49976500E-02   1.70901121E+03   1.50648132E+03   0.00000000E+00   8.70042034E-04   0.00000000E+00   3.30000000E+10
   2.40000000E+00   1.25000000E-02   5.00000000E-01  -4.51945091E+03   7.66523742E+03   5.95629030E+03   6.11946850E-02   1.70901180E+03   1.50648132E+03   0.00000000E+00   8.70105597E-04   0.00000000E+00   3.30000000E+10
   2.50000000E+00   1.25000000E-02   5.00000000E-01  -4.51945091E+03   7.66525506E+03   5.95630279E+03   5.61573792E-02   1.70901191E+03   1.50648132E+03   0.00000000E+00   8.70130732E-04   0.00000000E+00   3.30000000E+10
   2.60000000E+00   1.25000000E-02   5.00000000E-01  -4.51945091E+03   7.66525951E+03   5.95629935E+03   4.81952513E-02   1.70901184E+03   1.50648132E+03   0.00000000E+00   8.70136604E-04   0.00000000E+00   3.30000000E+10
   2.70000000E+00   1.25000000E-02   5.00000000E-01  -4.51945092E+03   7.66525275E+03   5.95627358E+03   2.88875917E-02   1.70901154E+03   1.50648132E+03   0.00000000E+00   8.70117890E-04   0.00000000E+00   3.30000000E+10
   2.80000000E+00   1.25000000E-02   5.00000000E-01  -4.51945092E+03   7.66524712E+03   5.95626489E+03   2.57525384E-02   1.70901146E+03   1.50648132E+03   0.00000000E+00   8.70121867E-04   0.00000000E+00   3.30000000E+10
   2.90000000E+00   1.25000000E-02   5.00000000E-01  -4.51945092E+03   7.66526277E+03   5.95627817E+03   2.37164165E-02   1.70901179E+03   1.50648132E+03   0.00000000E+00   8.70168465E-04   0.00000000E+00   3.30000000E+10
   2.97500000E+00   1.25000000E-02   5.00000000E-01  -4.51945091E+03   7.66528829E+03   5.95630183E+03   2.23475611E-02   1.70901229E+03   1.50648132E+03   0.00000000E+00   8.70226891E-04   0.00000000E+00   3.30000000E+10
   2.50000000E-02   5.00000000E-02   5.00000000E-01  -1.64269305E+04   4.09118729E+02   3.09885031E+03   3.10057823E+03   5.46601966E+02   5.38485197E+03   8.63958967E-01   3.43708092E+01   0.00000000E+00   3.30000000E+10
   1.00000000E-01   5.00000000E-02   5.00000000E-01  -8.37805549E+03   2.51908962E+03   5.31487795E+03   5.21360029E+03   2.41989424E+03   2.79129698E+03   0.00000000E+00   5.20569616E-01   0.00000000E+00   3.30000000E+10
   2.00000000E-01   5.00000000E-02   5.00000000E-01  -1.14489524E+04   1.94394234E+03   5.07549367E+03   5.07549367E+03   1.94683159E+03   3.81439129E+03   0.00000000E+00   7.22313045E-01   0.00000000E+00   3.30000000E+10
   3.00000000E-01   5.00000000E-02   5.00000000E-01  -1.23560429E+04   1.50902186E+03   5.29912007E+03   5.29912007E+03   1.51195436E+03   4.11672598E+03   0.00000000E+00   7.33124125E-01   0.00000000E+00   3.30000000E+10
   4.00000000E-01   5.00000000E-02   5.00000000E-01  -1.31410551E+04   1.14302142E+03   5.34329776E+03   5.34329776E+03   1.14574492E+03   4.37853603E+03   0.00000000E+00   6.80874260E-01   0.00000000E+00   3.30000000E+10
   5.00000000E-01   5.00000000E-02   5.00000000E-01  -5.96421537E+03   3.87515851E+03   5.86748301E+03   5.86731761E+03   3.87601215E+03   1.98739243E+03   0.00000000E+00   2.54758013E-01   0.00000000E+00   3.30000000E+10
   6.00000000E-01   5.00000000E-02   5.00000000E-01  -4.52140737E+03   5.19428792E+03   6.98224327E+03   5.02191418E+03   3.23406712E+03   1.50706360E+03   0.00000000E+00   2.70732468E-02   0.00000000E+00   3.30000000E+10
   7.00000000E-01   5.00000000E-02   5.00000000E-01  -4.51948407E+03   6.74373102E+03   7.09269218E+03   2.19684844E+03   1.84790601E+03   1.50648221E+03   0.00000000E+00   4.68025457E-03   0.00000000E+00   3.30000000E+10
   8.00000000E-01   5.00000000E-02   5.00000000E-01  -4.51946143E+03   7.30780784E+03   6.49007129E+03   9.09362577E+02   1.72710768E+03   1.50648144E+03   0.00000000E+00   2.13737503E-03   0.00000000E+00   3.30000000E+10
   9.00000000E-01   5.00000000E-02   5.00000000E-01  -4.51945525E+03   7.50946690E+03   6.19378868E+03   3.98712399E+02   1.71439622E+03   1.50648135E+03   0.00000000E+00   1.39930600E-03   0.00000000E+00   3.30000000E+10
   1.00000000E+00   5.00000000E-02   5.00000000E-01  -4.51945246E+03   7.60885925E+03   6.04111623E+03   1.43032418E+02   1.71077966E+03   1.50648133E+03   0.00000000E+00   1.05786970E-03   0.00000000E+00   3.30000000E+10
   1.10000000E+00   5.00000000E-02   5.00000000E-01  -4.51945142E+03   7.64695244E+03   5.98326991E+03   4.58808470E+01   1.70956709E+03   1.50648133E+03   0.00000000E+00   9.30055626E-04   0.00000000E+00   3.30000000E+10
   1.20000000E+00   5.00000000E-02   5.00000000E-01  -4.51945112E+03   7.65775936E+03   5.96720865E+03   1.86821497E+01   1.70923644E+03   1.50648132E+03   0.00000000E+00   8.94423154E-04   0.00000000E+00   3.30000000E+10
   1.30000000E+00   5.00000000E-02   5.00000000E-01  -4.51945101E+03   7.66179470E+03   5.96125617E+03   8.57187282E+00   1.70911393E+03   1.50648132E+03   0.00000000E+00   8.81138299E-04   0.00000000E+00   3.30000000E+10
   1.40000000E+00   5.00000000E-02   5.00000000E-01  -4.51945096E+03   7.66354398E+03   5.95866605E+03   4.17918118E+00   1.70906061E+03   1.50648132E+03   0.00000000E+00   8.75341834E-04   0.00000000E+00   3.30000000E+10
   1.50000000E+00   5.00000000E-02   5.00000000E-01  -4.51945094E+03   7.66432526E+03   5.95755033E+03   2.25921715E+00   1.70903764E+03   1.50648132E+03   0.00000000E+00   8.72839332E-04   0.00000000E+00   3.30000000E+10
   1.60000000E+00   5.00000000E-02   5.00000000E-01  -4.51945093E+03   7.66475158E+03   5.95689319E+03   1.16214610E+00   1.70902403E+03   1.50648132E+03   0.00000000E+00   8.71363120E-04   0.00000000E+00   3.30000000E+10
   1.70000000E+00   5.00000000E-02   5.00000000E-01  -4.51945093E+03   7.66498242E+03   5.95647992E+03   5.09725316E-01   1.70901571E+03   1.50648132E+03   0.00000000E+00   8.70464971E-04   0.00000000E+00   3.30000000E+10
   1.80000000E+00   5.00000000E-02   5.00000000E-01  -4.51945092E+03   7.66509571E+03   5.95631210E+03   2.25178511E-01   1.70901227E+03   1.50648132E+03   0.00000000E+00   8.70099288E-04   0.00000000E+00   3.30000000E+10
   1.90000000E+00   5.00000000E-02   5.00000000E-01  -4.51945092E+03   7.66515857E+03   5.95632718E+03   1.77485846E-01   1.70901236E+03   1.50648132E+03   0.00000000E+00   8.70100559E-04   0.00000000E+00   3.30000000E+10
   2.00000000E+00   5.00000000E-02   5.00000000E-01  -4.51945092E+03   7.66516668E+03   5.95627903E+03   1.20321163E-01   1.70901145E+03   1.50648132E+03   0.00000000E+00   8.70011869E-04   0.00000000E+00   3.30000000E+10
   2.10000000E+00   5.00000000E-02   5.00000000E-01  -4.51945092E+03   7.66516478E+03   5.95625158E+03   9.42202026E-02   1.70901090E+03   1.50648132E+03   0.00000000E+00   8.69962440E-04   0.00000000E+00   3.30000000E+10
   2.20000000E+00   5.00000000E-02   5.00000000E-01  -4.51945092E+03   7.66520001E+03   5.95627353E+03   8.14893729E-02   1.70901145E+03   1.50648132E+03   0.00000000E+00   8.70019214E-04   0.00000000E+00   3.30000000E+10
   2.30000000E+00   5.00000000E-02   5.00000000E-01  -4.51945092E+03   7.66519906E+03   5.95626379E+03   7.23525093E-02   1.70901110E+03   1.50648132E+03   0.00000000E+00   8.70001777E-04   0.00000000E+00   3.30000000E+10
   2.40000000E+00   5.00000000E-02   5.00000000E-01  -4.51945092E+03   7.66518806E+03   5.95624464E+03   6.39669343E-02   1.70901087E+03   1.50648132E+03   0.00000000E+00   8.69995026E-04   0.00000000E+00   3.30000000E+10
   2.50000000E+00   5.00000000E-02   5.00000000E-01  -4.51945092E+03   7.66520555E+03   5.95625148E+03   5.36087979E-02   1.70901115E+03   1.50648132E+03   0.00000000E+00   8.70045216E-04   0.00000000E+00   3.30000000E+10
   2.60000000E+00   5.00000000E-02   5.00000000E-01  -4.51945092E+03   7.66522871E+03   5.95625889E+03   3.80561232E-02   1.70901136E+03   1.50648132E+03   0.00000000E+00   8.70087873E-04   0.00000000E+00   3.30000000E+10
   2.70000000E+00   5.00000000E-02   5.00000000E-01  -4.51945092E+03   7.66524949E+03   5.95626763E+03   2.62332371E-02   1.70901157E+03   1.50648132E+03   0.00000000E+00   8.70126797E-04   0.00000000E+00   3.30000000E+10
   2.80000000E+00   5.00000000E-02   5.00000000E-01  -4.51945092E+03   7.66524124E+03   5.95625414E+03   2.08196920E-02   1.70901140E+03   1.50648132E+03   0.00000000E+00   8.70129446E-04   0.00000000E+00   3.30000000E+10
   2.90000000E+00   5.00000000E-02   5.00000000E-01  -4.51945092E+03   7.66526673E+03   5.95627018E+03   1.17078694E-02   1.70901174E+03   1.50648132E+03   0.00000000E+00   8.70176968E-04   0.00000000E+00   3.30000000E+10
   2.97500000E+00   5.00000000E-02   5.00000000E-01  -4.51945091E+03   7.66529281E+03   5.95629411E+03   9.99307539E-03   1.70901218E+03   1.50648132E+03   0.00000000E+00   8.70226059E-04   0.00000000E+00   3.30000000E+10
   2.50000000E-02   1.00000000E-01   5.00000000E-01  -1.02199999E+04   9.53154584E+01   0.00000000E+00   4.46719020E+02   1.25709522E+03   2.85550632E+03   2.23359510E+02   2.90444940E+02   0.00000000E+00   3.30000000E+10
   1.00000000E-01   1.00000000E-01   5.00000000E-01  -2.00551228E+04   9.91837510E+01   4.59151665E+02   4.59197618E+02   2.43501192E+02   6.58885230E+03   2.29763196E-02   3.60793601E+01   0.00000000E+00   3.30000000E+10
   2.00000000E-01   1.00000000E-01   5.00000000E-01  -1.78825126E+04   1.31439450E+02   1.43916227E+03   1.43916227E+03   1.56980397E+02   5.94381025E+03   0.00000000E+00   6.38523673E+00   0.00000000E+00   3.30000000E+10
   3.00000000E-01   1.00000000E-01   5.00000000E-01  -1.42494938E+04   2.79548655E+02   1.79837670E+03   1.79837670E+03   2.93638354E+02   4.74043812E+03   0.00000000E+00   3.52242489E+00   0.00000000E+00   3.30000000E+10
   4.00000000E-01   1.00000000E-01   5.00000000E-01  -1.30030465E+04   5.67175370E+02   4.88610271E+03   4.88610271E+03   5.72890686E+02   4.33053861E+03   0.00000000E+00   1.42882902E+00   0.00000000E+00   3.30000000E+10
   5.00000000E-01   1.00000000E-01   5.00000000E-01  -1.23417808E+04   1.05116579E+03   5.64888816E+03   5.64888816E+03   1.05378471E+03   4.11218100E+03   0.00000000E+00   6.54730238E-01   0.00000000E+00   3.30000000E+10
   6.00000000E-01   1.00000000E-01   5.00000000E-01  -5.60436384E+03   4.30466870E+03   6.23200191E+03   5.89525114E+03   3.96867997E+03   1.86761325E+03   0.00000000E+00   1.90510003E-01   0.00000000E+00   3.30000000E+10
   7.00000000E-01   1.00000000E-01   5.00000000E-01  -4.51954742E+03   6.47996273E+03   7.16591820E+03   2.62079358E+03   1.93486302E+03   1.50649920E+03   0.00000000E+00   6.22905321E-03   0.00000000E+00   3.30000000E+10
   8.00000000E-01   1.00000000E-01   5.00000000E-01  -4.51946612E+03   7.15847081E+03   6.67896181E+03   1.25946388E+03   1.73898365E+03   1.50648152E+03   0.00000000E+00   2.69380334E-03   0.00000000E+00   3.30000000E+10
   9.00000000E-01   1.00000000E-01   5.00000000E-01  -4.51945689E+03   7.45480123E+03   6.27666600E+03   5.38590414E+02   1.71673202E+03   1.50648138E+03   0.00000000E+00   1.59437350E-03   0.00000000E+00   3.30000000E+10
   1.00000000E+00   1.00000000E-01   5.00000000E-01  -4.51945257E+03   7.60528083E+03   6.04666569E+03   1.52299914E+02   1.71091934E+03   1.50648134E+03   0.00000000E+00   1.07045426E-03   0.00000000E+00   3.30000000E+10
   1.10000000E+00   1.00000000E-01   5.00000000E-01  -4.51945128E+03   7.65240043E+03   5.97496980E+03   3.19636160E+01   1.70939789E+03   1.50648133E+03   0.00000000E+00   9.11737401E-04   0.00000000E+00   3.30000000E+10
   1.20000000E+00   1.00000000E-01   5.00000000E-01  -4.51945105E+03   7.66061767E+03   5.96284501E+03   1.13711470E+01   1.70914734E+03   1.50648132E+03   0.00000000E+00   8.84757980E-04   0.00000000E+00   3.30000000E+10
   1.30000000E+00   1.00000000E-01   5.00000000E-01  -4.51945097E+03   7.66337325E+03   5.95884007E+03   4.52786268E+00   1.70906455E+03   1.50648132E+03   0.00000000E+00   8.75773417E-04   0.00000000E+00   3.30000000E+10
   1.40000000E+00   1.00000000E-01   5.00000000E-01  -4.51945096E+03   7.66389420E+03   5.95803991E+03   3.19030968E+00   1.70904809E+03   1.50648132E+03   0.00000000E+00   8.73988671E-04   0.00000000E+00   3.30000000E+10
   1.50000000E+00   1.00000000E-01   5.00000000E-01  -4.51945094E+03   7.66450182E+03   5.95723562E+03   1.76164149E+00   1.70903133E+03   1.50648132E+03   0.00000000E+00   8.72158117E-04   0.00000000E+00   3.30000000E+10
   1.60000000E+00   1.00000000E-01   5.00000000E-01  -4.51945093E+03   7.66484196E+03   5.95680453E+03   9.81369973E-01   1.70902228E+03   1.50648132E+03   0.00000000E+00   8.71168039E-04   0.00000000E+00   3.30000000E+10
   1.70000000E+00   1.00000000E-01   5.00000000E-01  -4.51945093E+03   7.66495858E+03   5.95659234E+03   6.48169048E-01   1.70901790E+03   1.50648132E+03   0.00000000E+00   8.70699024E-04   0.00000000E+00   3.30000000E+10
   1.80000000E+00   1.00000000E-01   5.00000000E-01  -4.51945092E+03   7.66507195E+03   5.95649796E+03   4.38440745E-01   1.70901591E+03   1.50648132E+03   0.00000000E+00   8.70471384E-04   0.00000000E+00   3.30000000E+10
   1.90000000E+00   1.00000000E-01   5.00000000E-01  -4.51945092E+03   7.66512867E+03   5.95639577E+03   2.77213588E-01   1.70901360E+03   1.50648132E+03   0.00000000E+00   8.70234643E-04   0.00000000E+00   3.30000000E+10
   2.00000000E+00   1.00000000E-01   5.00000000E-01  -4.51945092E+03   7.66511980E+03   5.95623230E+03   1.19814889E-01   1.70901079E+03   1.50648132E+03   0.00000000E+00   8.69953505E-04   0.00000000E+00   3.30000000E+10
   2.10000000E+00   1.00000000E-01   5.00000000E-01  -4.51945092E+03   7.66515898E+03   5.95622418E+03   7.24327796E-02   1.70901071E+03   1.50648132E+03   0.00000000E+00   8.69967341E-04   0.00000000E+00   3.30000000E+10
   2.20000000E+00   1.00000000E-01   5.00000000E-01  -4.51945092E+03   7.66519974E+03   5.95625905E+03   6.70193903E-02   1.70901119E+03   1.50648132E+03   0.00000000E+00   8.70015443E-04   0.00000000E+00   3.30000000E+10
   2.30000000E+00   1.00000000E-01   5.00000000E-01  -4.51945092E+03   7.66522592E+03   5.95627996E+03   6.20874561E-02   1.70901152E+03   1.50648132E+03   0.00000000E+00   8.70061181E-04   0.00000000E+00   3.30000000E+10
   2.40000000E+00   1.00000000E-01   5.00000000E-01  -4.51945092E+03   7.66516979E+03   5.95620899E+03   4.59594171E-02   1.70901024E+03   1.50648132E+03   0.00000000E+00   8.69947183E-04   0.00000000E+00   3.30000000E+10
   2.50000000E+00   1.00000000E-01   5.00000000E-01  -4.51945092E+03   7.66520548E+03   5.95622764E+03   2.97018750E-02   1.70901102E+03   1.50648132E+03   0.00000000E+00   8.70038105E-04   0.00000000E+00   3.30000000E+10
   2.60000000E+00   1.00000000E-01   5.00000000E-01  -4.51945091E+03   7.66525815E+03   5.95627482E+03   2.50305957E-02   1.70901185E+03   1.50648132E+03   0.00000000E+00   8.70138343E-04   0.00000000E+00   3.30000000E+10
   2.70000000E+00   1.00000000E-01   5.00000000E-01  -4.51945092E+03   7.66525961E+03   5.95627618E+03   2.47176882E-02   1.70901163E+03   1.50648132E+03   0.00000000E+00   8.70134191E-04   0.00000000E+00   3.30000000E+10
   2.80000000E+00   1.00000000E-01   5.00000000E-01  -4.51945092E+03   7.66524488E+03   5.95625492E+03   1.79284365E-02   1.70901137E+03   1.50648132E+03   0.00000000E+00   8.70127484E-04   0.00000000E+00   3.30000000E+10
   2.90000000E+00   1.00000000E-01   5.00000000E-01  -4.51945091E+03   7.66528881E+03   5.95629190E+03   1.16483525E-02   1.70901204E+03   1.50648132E+03   0.00000000E+00   8.70207141E-04   0.00000000E+00   3.30000000E+10
   2.97500000E+00   1.00000000E-01   5.00000000E-01  -4.51945091E+03   7.66531561E+03   5.95631504E+03   8.42451560E-03   1.70901248E+03   1.50648132E+03   0.00000000E+00   8.70257472E-04   0.00000000E+00   3.30000000E+10
   2.50000000E-02   1.50000000E-01   5.00000000E-01  -6.00593827E+03   9.52902782E+01   0.00000000E+00   8.91314880E+02   1.43226260E+03   1.55632198E+03   4.45657440E+02   3.34243080E+02   0.00000000E+00   3.30000000E+10
   1.00000000E-01   1.50000000E-01   5.00000000E-01  -1.56952283E+04   9.54774854E+01   0.00000000E+00   9.17580884E-02   1.04773970E+03   4.59694717E+03   4.58790442E-02   2.38065554E+02   0.00000000E+00   3.30000000E+10
   2.00000000E-01   1.50000000E-01   5.00000000E-01  -1.84945499E+04   9.62387008E+01   0.00000000E+00   0.00000000E+00   5.47257647E+02   5.86417066E+03   0.00000000E+00   1.12754737E+02   0.00000000E+00   3.30000000E+10
   3.00000000E-01   1.50000000E-01   5.00000000E-01  -1.81597329E+04   1.28773381E+02   0.00000000E+00   0.00000000E+00   2.52403926E+02   5.97082393E+03   0.00000000E+00   3.09076363E+01   0.00000000E+00   3.30000000E+10
   4.00000000E-01   1.50000000E-01   5.00000000E-01  -1.45315206E+04   4.72646223E+02   2.61963239E+03   2.61963239E+03   4.84138941E+02   4.83617839E+03   0.00000000E+00   2.87317943E+00   0.00000000E+00   3.30000000E+10
   5.00000000E-01   1.50000000E-01   5.00000000E-01  -1.14457858E+04   1.71081714E+03   5.58474965E+03   5.58474965E+03   1.71357770E+03   3.81342155E+03   0.00000000E+00   6.90140356E-01   0.00000000E+00   3.30000000E+10
   6.00000000E-01   1.50000000E-01   5.00000000E-01  -4.60997213E+03   5.24188871E+03   6.60979013E+03   4.75288159E+03   3.38523653E+03   1.53648646E+03   0.00000000E+00   6.40920487E-02   0.00000000E+00   3.30000000E+10
   7.00000000E-01   1.50000000E-01   5.00000000E-01  -4.51946999E+03   7.15024837E+03   6.56482147E+03   1.19387057E+03   1.77930909E+03   1.50648226E+03   0.00000000E+00   2.90324722E-03   0.00000000E+00   3.30000000E+10
   8.00000000E-01   1.50000000E-01   5.00000000E-01  -4.51945550E+03   7.50224763E+03   6.19843820E+03   4.11465372E+02   1.71528051E+03   1.50648136E+03   0.00000000E+00   1.42604512E-03   0.00000000E+00   3.30000000E+10
   9.00000000E-01   1.50000000E-01   5.00000000E-01  -4.51945363E+03   7.56637295E+03   6.10589959E+03   2.51725787E+02   1.71220395E+03   1.50648134E+03   0.00000000E+00   1.20198199E-03   0.00000000E+00   3.30000000E+10
   1.00000000E+00   1.50000000E-01   5.00000000E-01  -4.51945226E+03   7.61583186E+03   6.03036018E+03   1.25070134E+02   1.71054596E+03   1.50648133E+03   0.00000000E+00   1.03421506E-03   0.00000000E+00   3.30000000E+10
   1.10000000E+00   1.50000000E-01   5.00000000E-01  -4.51945169E+03   7.63653252E+03   5.99905767E+03   7.24134164E+01   1.70989212E+03   1.50648132E+03   0.00000000E+00   9.65050988E-04   0.00000000E+00   3.30000000E+10
   1.20000000E+00   1.50000000E-01   5.00000000E-01  -4.51945129E+03   7.65192640E+03   5.97570329E+03   3.31845417E+01   1.70941131E+03   1.50648133E+03   0.00000000E+00   9.13351085E-04   0.00000000E+00   3.30000000E+10
   1.30000000E+00   1.50000000E-01   5.00000000E-01  -4.51945111E+03   7.65896395E+03   5.96491824E+03   1.51412026E+01   1.70919047E+03   1.50648133E+03   0.00000000E+00   8.89469031E-04   0.00000000E+00   3.30000000E+10
   1.40000000E+00   1.50000000E-01   5.00000000E-01  -4.51945102E+03   7.66140868E+03   5.96177081E+03   9.48486852E+00   1.70912626E+03   1.50648132E+03   0.00000000E+00   8.82426224E-04   0.00000000E+00   3.30000000E+10
   1.50000000E+00   1.50000000E-01   5.00000000E-01  -4.51945098E+03   7.66306107E+03   5.95933465E+03   5.34478709E+00   1.70907471E+03   1.50648132E+03   0.00000000E+00   8.76879200E-04   0.00000000E+00   3.30000000E+10
   1.60000000E+00   1.50000000E-01   5.00000000E-01  -4.51945096E+03   7.66401342E+03   5.95783862E+03   2.86555111E+00   1.70904385E+03   1.50648132E+03   0.00000000E+00   8.73529998E-04   0.00000000E+00   3.30000000E+10
   1.70000000E+00   1.50000000E-01   5.00000000E-01  -4.51945094E+03   7.66454813E+03   5.95711398E+03   1.59145303E+00   1.70902909E+03   1.50648132E+03   0.00000000E+00   8.71910899E-04   0.00000000E+00   3.30000000E+10
   1.80000000E+00   1.50000000E-01   5.00000000E-01  -4.51945093E+03   7.66485386E+03   5.95658394E+03   7.44658393E-01   1.70901807E+03   1.50648132E+03   0.00000000E+00   8.70732260E-04   0.00000000E+00   3.30000000E+10
   1.90000000E+00   1.50000000E-01   5.00000000E-01  -4.51945093E+03   7.66504401E+03   5.95638264E+03   3.49087079E-01   1.70901394E+03   1.50648132E+03   0.00000000E+00   8.70274628E-04   0.00000000E+00   3.30000000E+10
   2.00000000E+00   1.50000000E-01   5.00000000E-01  -4.51945093E+03   7.66510085E+03   5.95624208E+03   1.48900655E-01   1.70901115E+03   1.50648132E+03   0.00000000E+00   8.69991308E-04   0.00000000E+00   3.30000000E+10
   2.10000000E+00   1.50000000E-01   5.00000000E-01  -4.51945092E+03   7.66515468E+03   5.95622797E+03   8.05570012E-02   1.70901075E+03   1.50648132E+03   0.00000000E+00   8.69972151E-04   0.00000000E+00   3.30000000E+10
   2.20000000E+00   1.50000000E-01   5.00000000E-01  -4.51945092E+03   7.66520099E+03   5.95624969E+03   5.64274095E-02   1.70901121E+03   1.50648132E+03   0.00000000E+00   8.70038112E-04   0.00000000E+00   3.30000000E+10
   2.30000000E+00   1.50000000E-01   5.00000000E-01  -4.51945092E+03   7.66523282E+03   5.95627014E+03   4.53185508E-02   1.70901148E+03   1.50648132E+03   0.00000000E+00   8.70079574E-04   0.00000000E+00   3.30000000E+10
   2.40000000E+00   1.50000000E-01   5.00000000E-01  -4.51945092E+03   7.66523242E+03   5.95625006E+03   2.53922051E-02   1.70901124E+03   1.50648132E+03   0.00000000E+00   8.70079069E-04   0.00000000E+00   3.30000000E+10
   2.50000000E+00   1.50000000E-01   5.00000000E-01  -4.51945092E+03   7.66525225E+03   5.95626746E+03   2.32842087E-02   1.70901155E+03   1.50648132E+03   0.00000000E+00   8.70127119E-04   0.00000000E+00   3.30000000E+10
   2.60000000E+00   1.50000000E-01   5.00000000E-01  -4.51945092E+03   7.66526175E+03   5.95627600E+03   2.24415286E-02   1.70901168E+03   1.50648132E+03   0.00000000E+00   8.70144164E-04   0.00000000E+00   3.30000000E+10
   2.70000000E+00   1.50000000E-01   5.00000000E-01  -4.51945091E+03   7.66529030E+03   5.95630308E+03   2.15416528E-02   1.70901224E+03   1.50648132E+03   0.00000000E+00   8.70207471E-04   0.00000000E+00   3.30000000E+10
   2.80000000E+00   1.50000000E-01   5.00000000E-01  -4.51945091E+03   7.66530069E+03   5.95631177E+03   1.98620151E-02   1.70901225E+03   1.50648132E+03   0.00000000E+00   8.70216569E-04   0.00000000E+00   3.30000000E+10
   2.90000000E+00   1.50000000E-01   5.00000000E-01  -4.51945091E+03   7.66529904E+03   5.95630731E+03   1.68966323E-02   1.70901211E+03   1.50648132E+03   0.00000000E+00   8.70207770E-04   0.00000000E+00   3.30000000E+10
   2.97500000E+00   1.50000000E-01   5.00000000E-01  -4.51945091E+03   7.66529897E+03   5.95630237E+03   1.19935909E-02   1.70901208E+03   1.50648132E+03   0.00000000E+00   8.70211008E-04   0.00000000E+00   3.30000000E+10
   2.50000000E-02   2.00000000E-01   5.00000000E-01  -1.76751949E+04   9.98903755E+01   4.68287477E+02   5.25907330E+02   4.11961810E+02   5.71249395E+03   2.88099262E+01   7.80178587E+01   0.00000000E+00   3.30000000E+10
   1.00000000E-01   2.00000000E-01   5.00000000E-01  -1.71262868E+04   2.72344798E+02   3.41622747E+03   3.41622747E+03   2.95676683E+02   5.69320768E+03   0.00000000E+00   5.83297146E+00   0.00000000E+00   3.30000000E+10
   2.00000000E-01   2.00000000E-01   5.00000000E-01  -1.81236164E+04   1.76047367E+02   2.55180910E+03   2.55180910E+03   1.91776981E+02   6.03071907E+03   0.00000000E+00   3.93240347E+00   0.00000000E+00   3.30000000E+10
   3.00000000E-01   2.00000000E-01   5.00000000E-01  -1.35560171E+04   4.46667001E+02   3.91565316E+03   3.91565316E+03   4.53837088E+02   4.51389230E+03   0.00000000E+00   1.79252162E+00   0.00000000E+00   3.30000000E+10
   4.00000000E-01   2.00000000E-01   5.00000000E-01  -1.17143026E+04   1.09649631E+03   5.27125697E+03   5.27125697E+03   1.09939345E+03   3.90283612E+03   0.00000000E+00   7.24283865E-01   0.00000000E+00   3.30000000E+10
   5.00000000E-01   2.00000000E-01   5.00000000E-01  -6.03299199E+03   3.81406166E+03   5.91973142E+03   5.91973142E+03   3.81500650E+03   2.01036744E+03   0.00000000E+00   2.36210572E-01   0.00000000E+00   3.30000000E+10
   6.00000000E-01   2.00000000E-01   5.00000000E-01  -4.52027494E+03   5.85769486E+03   7.06474937E+03   3.76855794E+03   2.56157096E+03   1.50671330E+03   0.00000000E+00   1.68822620E-02   0.00000000E+00   3.30000000E+10
   7.00000000E-01   2.00000000E-01   5.00000000E-01  -4.51946753E+03   7.13770163E+03   6.64851705E+03   1.26997327E+03   1.75916920E+03   1.50648161E+03   0.00000000E+00   2.83797347E-03   0.00000000E+00   3.30000000E+10
   8.00000000E-01   2.00000000E-01   5.00000000E-01  -4.51945579E+03   7.49155510E+03   6.21369379E+03   4.38060470E+02   1.71592763E+03   1.50648136E+03   0.00000000E+00   1.46317923E-03   0.00000000E+00   3.30000000E+10