 TITLE = "Total Component Concentration in Minerals (mol/m^3 PM)" 
VARIABLES = "X"          "Y"              "Z"            "H+"             "CO3--"          "Ca++"           "SO4--"          "Fe++"           "Al+++"          "K+"             "O2(aq)"         "Na+"            "Tracer"        
 ZONE I=          31 , J=          41 , K=           1  F=POINT
   2.50000000E-02   1.25000000E-02   5.00000000E-01  -1.85082116E+04   0.00000000E+00   0.00000000E+00   1.12336188E+02   4.76554038E+02   5.90786927E+03   5.61680940E+01   1.19138510E+02   0.00000000E+00   3.30000000E+10
   1.00000000E-01   1.25000000E-02   5.00000000E-01  -1.16443157E+04   1.98844432E+03   4.67549751E+03   4.67549751E+03   1.99183526E+03   3.87917793E+03   0.00000000E+00   8.47736162E-01   0.00000000E+00   3.30000000E+10
   2.00000000E-01   1.25000000E-02   5.00000000E-01  -4.52916057E+03   3.05912711E+03   6.00008270E+03   6.00008270E+03   3.05937464E+03   1.50955517E+03   0.00000000E+00   6.18844736E-02   0.00000000E+00   3.30000000E+10
   3.00000000E-01   1.25000000E-02   5.00000000E-01  -4.60274185E+03   3.66178689E+03   6.17668728E+03   6.17668728E+03   3.66216827E+03   1.53399303E+03   0.00000000E+00   9.53461835E-02   0.00000000E+00   3.30000000E+10
   4.00000000E-01   1.25000000E-02   5.00000000E-01  -5.45677855E+03   4.15964665E+03   6.06309939E+03   6.06309939E+03   4.16041180E+03   1.81841609E+03   0.00000000E+00   1.91286333E-01   0.00000000E+00   3.30000000E+10
   5.00000000E-01   1.25000000E-02   5.00000000E-01  -4.52263795E+03   4.40178137E+03   6.86740626E+03   6.50706070E+03   4.04162522E+03   1.50741971E+03   0.00000000E+00   4.73535990E-02   0.00000000E+00   3.30000000E+10
   6.00000000E-01   1.25000000E-02   5.00000000E-01  -4.51950644E+03   6.18150597E+03   7.64724925E+03   3.48113933E+03   2.01542480E+03   1.50648298E+03   0.00000000E+00   7.18910628E-03   0.00000000E+00   3.30000000E+10
   7.00000000E-01   1.25000000E-02   5.00000000E-01  -4.51946582E+03   7.16671767E+03   6.69970669E+03   1.27276761E+03   1.73978923E+03   1.50648152E+03   0.00000000E+00   2.65950268E-03   0.00000000E+00   3.30000000E+10
   8.00000000E-01   1.25000000E-02   5.00000000E-01  -4.51945506E+03   7.51652090E+03   6.18309352E+03   3.80804143E+02   1.71423702E+03   1.50648135E+03   0.00000000E+00   1.37476509E-03   0.00000000E+00   3.30000000E+10
   9.00000000E-01   1.25000000E-02   5.00000000E-01  -4.51945294E+03   7.59086474E+03   6.06837659E+03   1.88862254E+02   1.71135488E+03   1.50648133E+03   0.00000000E+00   1.11797433E-03   0.00000000E+00   3.30000000E+10
   1.00000000E+00   1.25000000E-02   5.00000000E-01  -4.51945196E+03   7.62636341E+03   6.01440665E+03   9.82470921E+01   1.71020785E+03   1.50648132E+03   0.00000000E+00   9.98909559E-04   0.00000000E+00   3.30000000E+10
   1.10000000E+00   1.25000000E-02   5.00000000E-01  -4.51945149E+03   7.64392242E+03   5.98796234E+03   5.36979362E+01   1.70966177E+03   1.50648132E+03   0.00000000E+00   9.40446252E-04   0.00000000E+00   3.30000000E+10
   1.20000000E+00   1.25000000E-02   5.00000000E-01  -4.51945122E+03   7.65382032E+03   5.97314104E+03   2.86746713E+01   1.70935759E+03   1.50648132E+03   0.00000000E+00   9.07579402E-04   0.00000000E+00   3.30000000E+10
   1.30000000E+00   1.25000000E-02   5.00000000E-01  -4.51945107E+03   7.65971601E+03   5.96431745E+03   1.37746627E+01   1.70917677E+03   1.50648132E+03   0.00000000E+00   8.87967106E-04   0.00000000E+00   3.30000000E+10
   1.40000000E+00   1.25000000E-02   5.00000000E-01  -4.51945098E+03   7.66308858E+03   5.95923928E+03   5.21978545E+00   1.70907259E+03   1.50648132E+03   0.00000000E+00   8.76653318E-04   0.00000000E+00   3.30000000E+10
   1.50000000E+00   1.25000000E-02   5.00000000E-01  -4.51945094E+03   7.66439944E+03   5.95731460E+03   1.94474427E+00   1.70903307E+03   1.50648132E+03   0.00000000E+00   8.72349395E-04   0.00000000E+00   3.30000000E+10
   1.60000000E+00   1.25000000E-02   5.00000000E-01  -4.51945093E+03   7.66488549E+03   5.95661851E+03   7.48233695E-01   1.70901870E+03   1.50648132E+03   0.00000000E+00   8.70786153E-04   0.00000000E+00   3.30000000E+10
   1.70000000E+00   1.25000000E-02   5.00000000E-01  -4.51945092E+03   7.66506450E+03   5.95637738E+03   3.23039431E-01   1.70901365E+03   1.50648132E+03   0.00000000E+00   8.70241591E-04   0.00000000E+00   3.30000000E+10
   1.80000000E+00   1.25000000E-02   5.00000000E-01  -4.51945092E+03   7.66514078E+03   5.95629217E+03   1.59760450E-01   1.70901184E+03   1.50648132E+03   0.00000000E+00   8.70054319E-04   0.00000000E+00   3.30000000E+10
   1.90000000E+00   1.25000000E-02   5.00000000E-01  -4.51945092E+03   7.66518262E+03   5.95628285E+03   1.08277068E-01   1.70901153E+03   1.50648132E+03   0.00000000E+00   8.70024392E-04   0.00000000E+00   3.30000000E+10
   2.00000000E+00   1.25000000E-02   5.00000000E-01  -4.51945092E+03   7.66520140E+03   5.95627920E+03   8.56860351E-02   1.70901137E+03   1.50648132E+03   0.00000000E+00   8.70017952E-04   0.00000000E+00   3.30000000E+10
   2.10000000E+00   1.25000000E-02   5.00000000E-01  -4.51945092E+03   7.66520444E+03   5.95627253E+03   7.58487362E-02   1.70901124E+03   1.50648132E+03   0.00000000E+00   8.70018861E-04   0.00000000E+00   3.30000000E+10
   2.20000000E+00   1.25000000E-02   5.00000000E-01  -4.51945092E+03   7.66519447E+03   5.95625630E+03   6.93980405E-02   1.70901104E+03   1.50648132E+03   0.00000000E+00   8.70015995E-04   0.00000000E+00   3.30000000E+10
   2.30000000E+00   1.25000000E-02   5.00000000E-01  -4.51945092E+03   7.66520457E+03   5.95626183E+03   6.49976474E-02   1.70901121E+03   1.50648132E+03   0.00000000E+00   8.70042034E-04   0.00000000E+00   3.30000000E+10
   2.40000000E+00   1.25000000E-02   5.00000000E-01  -4.51945091E+03   7.66523742E+03   5.95629030E+03   6.11946824E-02   1.70901180E+03   1.50648132E+03   0.00000000E+00   8.70105598E-04   0.00000000E+00   3.30000000E+10
   2.50000000E+00   1.25000000E-02   5.00000000E-01  -4.51945091E+03   7.66525506E+03   5.95630279E+03   5.61573766E-02   1.70901191E+03   1.50648132E+03   0.00000000E+00   8.70130732E-04   0.00000000E+00   3.30000000E+10
   2.60000000E+00   1.25000000E-02   5.00000000E-01  -4.51945091E+03   7.66525951E+03   5.95629935E+03   4.81952489E-02   1.70901184E+03   1.50648132E+03   0.00000000E+00   8.70136605E-04   0.00000000E+00   3.30000000E+10
   2.70000000E+00   1.25000000E-02   5.00000000E-01  -4.51945092E+03   7.66525275E+03   5.95627358E+03   2.88875899E-02   1.70901154E+03   1.50648132E+03   0.00000000E+00   8.70117890E-04   0.00000000E+00   3.30000000E+10
   2.80000000E+00   1.25000000E-02   5.00000000E-01  -4.51945092E+03   7.66524712E+03   5.95626489E+03   2.57525367E-02   1.70901146E+03   1.50648132E+03   0.00000000E+00   8.70121867E-04   0.00000000E+00   3.30000000E+10
   2.90000000E+00   1.25000000E-02   5.00000000E-01  -4.51945092E+03   7.66526277E+03   5.95627817E+03   2.37164149E-02   1.70901179E+03   1.50648132E+03   0.00000000E+00   8.70168465E-04   0.00000000E+00   3.30000000E+10
   2.97500000E+00   1.25000000E-02   5.00000000E-01  -4.51945091E+03   7.66528829E+03   5.95630183E+03   2.23475595E-02   1.70901229E+03   1.50648132E+03   0.00000000E+00   8.70226891E-04   0.00000000E+00   3.30000000E+10
   2.50000000E-02   5.00000000E-02   5.00000000E-01  -1.73172703E+04   0.00000000E+00   2.57775303E+03   2.57982492E+03   1.44067190E+02   5.67741460E+03   1.03594449E+00   3.60167975E+01   0.00000000E+00   3.30000000E+10
   1.00000000E-01   5.00000000E-02   5.00000000E-01  -9.71232836E+03   1.70880172E+03   5.22514369E+03   5.22514369E+03   1.71298035E+03   3.23465703E+03   0.00000000E+00   1.04465839E+00   0.00000000E+00   3.30000000E+10
   2.00000000E-01   5.00000000E-02   5.00000000E-01  -1.20539513E+04   1.72215711E+03   5.10462035E+03   5.10462035E+03   1.72607670E+03   4.01537071E+03   0.00000000E+00   9.79899266E-01   0.00000000E+00   3.30000000E+10
   3.00000000E-01   5.00000000E-02   5.00000000E-01  -1.26766815E+04   1.41294119E+03   5.32195907E+03   5.32195907E+03   1.41645130E+03   4.22322043E+03   0.00000000E+00   8.77527317E-01   0.00000000E+00   3.30000000E+10
   4.00000000E-01   5.00000000E-02   5.00000000E-01  -1.33433356E+04   1.00025612E+03   5.34429912E+03   5.34429912E+03   1.00318668E+03   4.44582483E+03   0.00000000E+00   7.32638850E-01   0.00000000E+00   3.30000000E+10
   5.00000000E-01   5.00000000E-02   5.00000000E-01  -5.99176455E+03   3.99897659E+03   5.90658393E+03   5.90658393E+03   4.00004336E+03   1.99654367E+03   0.00000000E+00   2.66692245E-01   0.00000000E+00   3.30000000E+10
   6.00000000E-01   5.00000000E-02   5.00000000E-01  -4.52303945E+03   4.50818185E+03   6.70517183E+03   6.41885808E+03   4.22207121E+03   1.50754441E+03   0.00000000E+00   5.07772530E-02   0.00000000E+00   3.30000000E+10
   7.00000000E-01   5.00000000E-02   5.00000000E-01  -4.51948613E+03   6.68725098E+03   7.15055762E+03   2.32648016E+03   1.86319319E+03   1.50648227E+03   0.00000000E+00   4.91544234E-03   0.00000000E+00   3.30000000E+10
   8.00000000E-01   5.00000000E-02   5.00000000E-01  -4.51946154E+03   7.30399806E+03   6.49546611E+03   9.18791880E+02   1.72733243E+03   1.50648145E+03   0.00000000E+00   2.15007175E-03   0.00000000E+00   3.30000000E+10
   9.00000000E-01   5.00000000E-02   5.00000000E-01  -4.51945526E+03   7.50918759E+03   6.19420488E+03   3.99417273E+02   1.71440559E+03   1.50648135E+03   0.00000000E+00   1.40022790E-03   0.00000000E+00   3.30000000E+10
   1.00000000E+00   5.00000000E-02   5.00000000E-01  -4.51945246E+03   7.60884355E+03   6.04113966E+03   1.43072024E+02   1.71078014E+03   1.50648133E+03   0.00000000E+00   1.05792148E-03   0.00000000E+00   3.30000000E+10
   1.10000000E+00   5.00000000E-02   5.00000000E-01  -4.51945142E+03   7.64695166E+03   5.98327108E+03   4.58828162E+01   1.70956712E+03   1.50648133E+03   0.00000000E+00   9.30058317E-04   0.00000000E+00   3.30000000E+10
   1.20000000E+00   5.00000000E-02   5.00000000E-01  -4.51945112E+03   7.65775931E+03   5.96720872E+03   1.86822772E+01   1.70923645E+03   1.50648132E+03   0.00000000E+00   8.94423410E-04   0.00000000E+00   3.30000000E+10
   1.30000000E+00   5.00000000E-02   5.00000000E-01  -4.51945101E+03   7.66179470E+03   5.96125618E+03   8.57188208E+00   1.70911393E+03   1.50648132E+03   0.00000000E+00   8.81138330E-04   0.00000000E+00   3.30000000E+10
   1.40000000E+00   5.00000000E-02   5.00000000E-01  -4.51945096E+03   7.66354398E+03   5.95866605E+03   4.17918190E+00   1.70906061E+03   1.50648132E+03   0.00000000E+00   8.75341838E-04   0.00000000E+00   3.30000000E+10
   1.50000000E+00   5.00000000E-02   5.00000000E-01  -4.51945094E+03   7.66432526E+03   5.95755033E+03   2.25921721E+00   1.70903764E+03   1.50648132E+03   0.00000000E+00   8.72839364E-04   0.00000000E+00   3.30000000E+10
   1.60000000E+00   5.00000000E-02   5.00000000E-01  -4.51945093E+03   7.66475158E+03   5.95689319E+03   1.16214610E+00   1.70902403E+03   1.50648132E+03   0.00000000E+00   8.71363121E-04   0.00000000E+00   3.30000000E+10
   1.70000000E+00   5.00000000E-02   5.00000000E-01  -4.51945093E+03   7.66498242E+03   5.95647992E+03   5.09725312E-01   1.70901571E+03   1.50648132E+03   0.00000000E+00   8.70464972E-04   0.00000000E+00   3.30000000E+10
   1.80000000E+00   5.00000000E-02   5.00000000E-01  -4.51945092E+03   7.66509571E+03   5.95631210E+03   2.25178508E-01   1.70901227E+03   1.50648132E+03   0.00000000E+00   8.70099288E-04   0.00000000E+00   3.30000000E+10
   1.90000000E+00   5.00000000E-02   5.00000000E-01  -4.51945092E+03   7.66515857E+03   5.95632718E+03   1.77485843E-01   1.70901236E+03   1.50648132E+03   0.00000000E+00   8.70100560E-04   0.00000000E+00   3.30000000E+10
   2.00000000E+00   5.00000000E-02   5.00000000E-01  -4.51945092E+03   7.66516668E+03   5.95627903E+03   1.20321160E-01   1.70901145E+03   1.50648132E+03   0.00000000E+00   8.70011869E-04   0.00000000E+00   3.30000000E+10
   2.10000000E+00   5.00000000E-02   5.00000000E-01  -4.51945092E+03   7.66516478E+03   5.95625158E+03   9.42201998E-02   1.70901090E+03   1.50648132E+03   0.00000000E+00   8.69962440E-04   0.00000000E+00   3.30000000E+10
   2.20000000E+00   5.00000000E-02   5.00000000E-01  -4.51945092E+03   7.66520001E+03   5.95627353E+03   8.14893701E-02   1.70901145E+03   1.50648132E+03   0.00000000E+00   8.70019214E-04   0.00000000E+00   3.30000000E+10
   2.30000000E+00   5.00000000E-02   5.00000000E-01  -4.51945092E+03   7.66519906E+03   5.95626379E+03   7.23525065E-02   1.70901110E+03   1.50648132E+03   0.00000000E+00   8.70001777E-04   0.00000000E+00   3.30000000E+10
   2.40000000E+00   5.00000000E-02   5.00000000E-01  -4.51945092E+03   7.66518806E+03   5.95624464E+03   6.39669316E-02   1.70901087E+03   1.50648132E+03   0.00000000E+00   8.69995026E-04   0.00000000E+00   3.30000000E+10
   2.50000000E+00   5.00000000E-02   5.00000000E-01  -4.51945092E+03   7.66520555E+03   5.95625148E+03   5.36087954E-02   1.70901115E+03   1.50648132E+03   0.00000000E+00   8.70045216E-04   0.00000000E+00   3.30000000E+10
   2.60000000E+00   5.00000000E-02   5.00000000E-01  -4.51945092E+03   7.66522871E+03   5.95625889E+03   3.80561210E-02   1.70901136E+03   1.50648132E+03   0.00000000E+00   8.70087874E-04   0.00000000E+00   3.30000000E+10
   2.70000000E+00   5.00000000E-02   5.00000000E-01  -4.51945092E+03   7.66524949E+03   5.95626763E+03   2.62332354E-02   1.70901157E+03   1.50648132E+03   0.00000000E+00   8.70126797E-04   0.00000000E+00   3.30000000E+10
   2.80000000E+00   5.00000000E-02   5.00000000E-01  -4.51945092E+03   7.66524124E+03   5.95625414E+03   2.08196906E-02   1.70901140E+03   1.50648132E+03   0.00000000E+00   8.70129446E-04   0.00000000E+00   3.30000000E+10
   2.90000000E+00   5.00000000E-02   5.00000000E-01  -4.51945092E+03   7.66526673E+03   5.95627018E+03   1.17078684E-02   1.70901174E+03   1.50648132E+03   0.00000000E+00   8.70176969E-04   0.00000000E+00   3.30000000E+10
   2.97500000E+00   5.00000000E-02   5.00000000E-01  -4.51945091E+03   7.66529281E+03   5.95629411E+03   9.99307449E-03   1.70901218E+03   1.50648132E+03   0.00000000E+00   8.70226059E-04   0.00000000E+00   3.30000000E+10
   2.50000000E-02   1.00000000E-01   5.00000000E-01  -9.79694871E+03   0.00000000E+00   0.00000000E+00   4.74936432E+02   1.27253186E+03   2.65476322E+03   2.37468216E+02   3.18132964E+02   0.00000000E+00   3.30000000E+10
   1.00000000E-01   1.00000000E-01   5.00000000E-01  -2.04406213E+04   0.00000000E+00   0.00000000E+00   3.73119778E-02   1.49773427E+02   6.71371013E+03   1.86559889E-02   3.74433567E+01   0.00000000E+00   3.30000000E+10
   2.00000000E-01   1.00000000E-01   5.00000000E-01  -1.83325224E+04   0.00000000E+00   1.13637168E+03   1.13637168E+03   2.59897401E+01   6.09351432E+03   0.00000000E+00   6.49743503E+00   0.00000000E+00   3.30000000E+10
   3.00000000E-01   1.00000000E-01   5.00000000E-01  -1.49462252E+04   0.00000000E+00   1.66226137E+03   1.66226137E+03   1.49799008E+01   4.97208846E+03   0.00000000E+00   3.74497520E+00   0.00000000E+00   3.30000000E+10
   4.00000000E-01   1.00000000E-01   5.00000000E-01  -1.39030144E+04   3.10603239E+01   4.88199324E+03   4.88199324E+03   3.81418479E+01   4.62961713E+03   0.00000000E+00   1.77038100E+00   0.00000000E+00   3.30000000E+10
   5.00000000E-01   1.00000000E-01   5.00000000E-01  -1.27902008E+04   7.54541916E+02   5.64904649E+03   5.64904649E+03   7.57591327E+02   4.26136732E+03   0.00000000E+00   7.62352686E-01   0.00000000E+00   3.30000000E+10
   6.00000000E-01   1.00000000E-01   5.00000000E-01  -5.61890347E+03   4.35248159E+03   6.22470494E+03   6.22470494E+03   4.35328978E+03   1.87242903E+03   0.00000000E+00   2.02048825E-01   0.00000000E+00   3.30000000E+10
   7.00000000E-01   1.00000000E-01   5.00000000E-01  -4.51963629E+03   6.30048143E+03   7.14885162E+03   2.89653770E+03   2.04820555E+03   1.50652007E+03   0.00000000E+00   9.51074236E-03   0.00000000E+00   3.30000000E+10
   8.00000000E-01   1.00000000E-01   5.00000000E-01  -4.51946625E+03   7.15360667E+03   6.68433785E+03   1.27015826E+03   1.73943792E+03   1.50648152E+03   0.00000000E+00   2.70985549E-03   0.00000000E+00   3.30000000E+10
   9.00000000E-01   1.00000000E-01   5.00000000E-01  -4.51945689E+03   7.45460875E+03   6.27694451E+03   5.39068279E+02   1.71673889E+03   1.50648138E+03   0.00000000E+00   1.59500764E-03   0.00000000E+00   3.30000000E+10
   1.00000000E+00   1.00000000E-01   5.00000000E-01  -4.51945257E+03   7.60527396E+03   6.04667594E+03   1.52317254E+02   1.71091956E+03   1.50648134E+03   0.00000000E+00   1.07047694E-03   0.00000000E+00   3.30000000E+10
   1.10000000E+00   1.00000000E-01   5.00000000E-01  -4.51945128E+03   7.65240021E+03   5.97497013E+03   3.19641761E+01   1.70939790E+03   1.50648133E+03   0.00000000E+00   9.11738136E-04   0.00000000E+00   3.30000000E+10
   1.20000000E+00   1.00000000E-01   5.00000000E-01  -4.51945105E+03   7.66061766E+03   5.96284503E+03   1.13711760E+01   1.70914734E+03   1.50648132E+03   0.00000000E+00   8.84758099E-04   0.00000000E+00   3.30000000E+10
   1.30000000E+00   1.00000000E-01   5.00000000E-01  -4.51945097E+03   7.66337325E+03   5.95884007E+03   4.52786481E+00   1.70906455E+03   1.50648132E+03   0.00000000E+00   8.75773443E-04   0.00000000E+00   3.30000000E+10
   1.40000000E+00   1.00000000E-01   5.00000000E-01  -4.51945096E+03   7.66389420E+03   5.95803991E+03   3.19030986E+00   1.70904809E+03   1.50648132E+03   0.00000000E+00   8.73988696E-04   0.00000000E+00   3.30000000E+10
   1.50000000E+00   1.00000000E-01   5.00000000E-01  -4.51945094E+03   7.66450182E+03   5.95723562E+03   1.76164150E+00   1.70903133E+03   1.50648132E+03   0.00000000E+00   8.72158126E-04   0.00000000E+00   3.30000000E+10
   1.60000000E+00   1.00000000E-01   5.00000000E-01  -4.51945093E+03   7.66484196E+03   5.95680453E+03   9.81369970E-01   1.70902228E+03   1.50648132E+03   0.00000000E+00   8.71168038E-04   0.00000000E+00   3.30000000E+10
   1.70000000E+00   1.00000000E-01   5.00000000E-01  -4.51945093E+03   7.66495858E+03   5.95659234E+03   6.48169044E-01   1.70901790E+03   1.50648132E+03   0.00000000E+00   8.70699024E-04   0.00000000E+00   3.30000000E+10
   1.80000000E+00   1.00000000E-01   5.00000000E-01  -4.51945092E+03   7.66507195E+03   5.95649796E+03   4.38440741E-01   1.70901591E+03   1.50648132E+03   0.00000000E+00   8.70471384E-04   0.00000000E+00   3.30000000E+10
   1.90000000E+00   1.00000000E-01   5.00000000E-01  -4.51945092E+03   7.66512867E+03   5.95639577E+03   2.77213585E-01   1.70901360E+03   1.50648132E+03   0.00000000E+00   8.70234643E-04   0.00000000E+00   3.30000000E+10
   2.00000000E+00   1.00000000E-01   5.00000000E-01  -4.51945092E+03   7.66511980E+03   5.95623230E+03   1.19814887E-01   1.70901079E+03   1.50648132E+03   0.00000000E+00   8.69953505E-04   0.00000000E+00   3.30000000E+10
   2.10000000E+00   1.00000000E-01   5.00000000E-01  -4.51945092E+03   7.66515898E+03   5.95622418E+03   7.24327773E-02   1.70901071E+03   1.50648132E+03   0.00000000E+00   8.69967341E-04   0.00000000E+00   3.30000000E+10
   2.20000000E+00   1.00000000E-01   5.00000000E-01  -4.51945092E+03   7.66519974E+03   5.95625905E+03   6.70193878E-02   1.70901119E+03   1.50648132E+03   0.00000000E+00   8.70015443E-04   0.00000000E+00   3.30000000E+10
   2.30000000E+00   1.00000000E-01   5.00000000E-01  -4.51945092E+03   7.66522592E+03   5.95627996E+03   6.20874535E-02   1.70901152E+03   1.50648132E+03   0.00000000E+00   8.70061181E-04   0.00000000E+00   3.30000000E+10
   2.40000000E+00   1.00000000E-01   5.00000000E-01  -4.51945092E+03   7.66516979E+03   5.95620899E+03   4.59594149E-02   1.70901024E+03   1.50648132E+03   0.00000000E+00   8.69947184E-04   0.00000000E+00   3.30000000E+10
   2.50000000E+00   1.00000000E-01   5.00000000E-01  -4.51945092E+03   7.66520548E+03   5.95622764E+03   2.97018733E-02   1.70901102E+03   1.50648132E+03   0.00000000E+00   8.70038105E-04   0.00000000E+00   3.30000000E+10
   2.60000000E+00   1.00000000E-01   5.00000000E-01  -4.51945091E+03   7.66525815E+03   5.95627482E+03   2.50305941E-02   1.70901185E+03   1.50648132E+03   0.00000000E+00   8.70138343E-04   0.00000000E+00   3.30000000E+10
   2.70000000E+00   1.00000000E-01   5.00000000E-01  -4.51945092E+03   7.66525961E+03   5.95627618E+03   2.47176865E-02   1.70901163E+03   1.50648132E+03   0.00000000E+00   8.70134192E-04   0.00000000E+00   3.30000000E+10
   2.80000000E+00   1.00000000E-01   5.00000000E-01  -4.51945092E+03   7.66524488E+03   5.95625492E+03   1.79284352E-02   1.70901137E+03   1.50648132E+03   0.00000000E+00   8.70127485E-04   0.00000000E+00   3.30000000E+10
   2.90000000E+00   1.00000000E-01   5.00000000E-01  -4.51945091E+03   7.66528881E+03   5.95629190E+03   1.16483515E-02   1.70901204E+03   1.50648132E+03   0.00000000E+00   8.70207142E-04   0.00000000E+00   3.30000000E+10
   2.97500000E+00   1.00000000E-01   5.00000000E-01  -4.51945091E+03   7.66531561E+03   5.95631504E+03   8.42451478E-03   1.70901248E+03   1.50648132E+03   0.00000000E+00   8.70257473E-04   0.00000000E+00   3.30000000E+10
   2.50000000E-02   1.50000000E-01   5.00000000E-01  -5.43873445E+03   0.00000000E+00   0.00000000E+00   9.38324935E+02   1.43660613E+03   1.32433653E+03   4.69162467E+02   3.59151533E+02   0.00000000E+00   3.30000000E+10
   1.00000000E-01   1.50000000E-01   5.00000000E-01  -1.57780274E+04   0.00000000E+00   0.00000000E+00   9.01776887E-02   9.89631777E+02   4.59963304E+03   4.50888443E-02   2.47407944E+02   0.00000000E+00   3.30000000E+10
   2.00000000E-01   1.50000000E-01   5.00000000E-01  -1.87125038E+04   0.00000000E+00   0.00000000E+00   0.00000000E+00   4.52483577E+02   5.93584556E+03   0.00000000E+00   1.13120894E+02   0.00000000E+00   3.30000000E+10
   3.00000000E-01   1.50000000E-01   5.00000000E-01  -1.84989861E+04   0.00000000E+00   0.00000000E+00   0.00000000E+00   1.23564350E+02   6.08395247E+03   0.00000000E+00   3.08910876E+01   0.00000000E+00   3.30000000E+10
   4.00000000E-01   1.50000000E-01   5.00000000E-01  -1.55522964E+04   0.00000000E+00   2.36720200E+03   2.36720200E+03   1.32652976E+01   5.17525526E+03   0.00000000E+00   3.31632439E+00   0.00000000E+00   3.30000000E+10
   5.00000000E-01   1.50000000E-01   5.00000000E-01  -1.19691847E+04   1.39921847E+03   5.59058730E+03   5.59058730E+03   1.40257720E+03   3.98748907E+03   0.00000000E+00   8.39682806E-01   0.00000000E+00   3.30000000E+10
   6.00000000E-01   1.50000000E-01   5.00000000E-01  -4.62991836E+03   4.59815786E+03   6.34774902E+03   6.34774902E+03   4.59854999E+03   1.54304471E+03   0.00000000E+00   9.80305278E-02   0.00000000E+00   3.30000000E+10
   7.00000000E-01   1.50000000E-01   5.00000000E-01  -4.51947376E+03   7.07515048E+03   6.62354250E+03   1.34818773E+03   1.79980875E+03   1.50648255E+03   0.00000000E+00   3.26243234E-03   0.00000000E+00   3.30000000E+10
   8.00000000E-01   1.50000000E-01   5.00000000E-01  -4.51945556E+03   7.49976733E+03   6.20173003E+03   4.17379515E+02   1.71542256E+03   1.50648136E+03   0.00000000E+00   1.43427482E-03   0.00000000E+00   3.30000000E+10
   9.00000000E-01   1.50000000E-01   5.00000000E-01  -4.51945363E+03   7.56625482E+03   6.10607143E+03   2.52019656E+02   1.71220785E+03   1.50648134E+03   0.00000000E+00   1.20237121E-03   0.00000000E+00   3.30000000E+10
   1.00000000E+00   1.50000000E-01   5.00000000E-01  -4.51945226E+03   7.61582274E+03   6.03037367E+03   1.25093025E+02   1.71054624E+03   1.50648133E+03   0.00000000E+00   1.03424513E-03   0.00000000E+00   3.30000000E+10
   1.10000000E+00   1.50000000E-01   5.00000000E-01  -4.51945169E+03   7.63653159E+03   5.99905905E+03   7.24157518E+01   1.70989215E+03   1.50648132E+03   0.00000000E+00   9.65054054E-04   0.00000000E+00   3.30000000E+10
   1.20000000E+00   1.50000000E-01   5.00000000E-01  -4.51945129E+03   7.65192633E+03   5.97570339E+03   3.31847130E+01   1.70941131E+03   1.50648133E+03   0.00000000E+00   9.13351394E-04   0.00000000E+00   3.30000000E+10
   1.30000000E+00   1.50000000E-01   5.00000000E-01  -4.51945111E+03   7.65896394E+03   5.96491825E+03   1.51412161E+01   1.70919047E+03   1.50648133E+03   0.00000000E+00   8.89469091E-04   0.00000000E+00   3.30000000E+10
   1.40000000E+00   1.50000000E-01   5.00000000E-01  -4.51945102E+03   7.66140868E+03   5.96177081E+03   9.48487002E+00   1.70912626E+03   1.50648132E+03   0.00000000E+00   8.82426230E-04   0.00000000E+00   3.30000000E+10
   1.50000000E+00   1.50000000E-01   5.00000000E-01  -4.51945098E+03   7.66306107E+03   5.95933465E+03   5.34478722E+00   1.70907471E+03   1.50648132E+03   0.00000000E+00   8.76879219E-04   0.00000000E+00   3.30000000E+10
   1.60000000E+00   1.50000000E-01   5.00000000E-01  -4.51945096E+03   7.66401342E+03   5.95783862E+03   2.86555112E+00   1.70904385E+03   1.50648132E+03   0.00000000E+00   8.73529998E-04   0.00000000E+00   3.30000000E+10
   1.70000000E+00   1.50000000E-01   5.00000000E-01  -4.51945094E+03   7.66454813E+03   5.95711398E+03   1.59145302E+00   1.70902909E+03   1.50648132E+03   0.00000000E+00   8.71910899E-04   0.00000000E+00   3.30000000E+10
   1.80000000E+00   1.50000000E-01   5.00000000E-01  -4.51945093E+03   7.66485386E+03   5.95658394E+03   7.44658387E-01   1.70901807E+03   1.50648132E+03   0.00000000E+00   8.70732260E-04   0.00000000E+00   3.30000000E+10
   1.90000000E+00   1.50000000E-01   5.00000000E-01  -4.51945093E+03   7.66504401E+03   5.95638264E+03   3.49087075E-01   1.70901394E+03   1.50648132E+03   0.00000000E+00   8.70274628E-04   0.00000000E+00   3.30000000E+10
   2.00000000E+00   1.50000000E-01   5.00000000E-01  -4.51945093E+03   7.66510085E+03   5.95624208E+03   1.48900652E-01   1.70901115E+03   1.50648132E+03   0.00000000E+00   8.69991308E-04   0.00000000E+00   3.30000000E+10
   2.10000000E+00   1.50000000E-01   5.00000000E-01  -4.51945092E+03   7.66515468E+03   5.95622797E+03   8.05569986E-02   1.70901075E+03   1.50648132E+03   0.00000000E+00   8.69972151E-04   0.00000000E+00   3.30000000E+10
   2.20000000E+00   1.50000000E-01   5.00000000E-01  -4.51945092E+03   7.66520099E+03   5.95624969E+03   5.64274072E-02   1.70901121E+03   1.50648132E+03   0.00000000E+00   8.70038112E-04   0.00000000E+00   3.30000000E+10
   2.30000000E+00   1.50000000E-01   5.00000000E-01  -4.51945092E+03   7.66523282E+03   5.95627014E+03   4.53185486E-02   1.70901148E+03   1.50648132E+03   0.00000000E+00   8.70079574E-04   0.00000000E+00   3.30000000E+10
   2.40000000E+00   1.50000000E-01   5.00000000E-01  -4.51945092E+03   7.66523242E+03   5.95625006E+03   2.53922036E-02   1.70901124E+03   1.50648132E+03   0.00000000E+00   8.70079069E-04   0.00000000E+00   3.30000000E+10
   2.50000000E+00   1.50000000E-01   5.00000000E-01  -4.51945092E+03   7.66525225E+03   5.95626746E+03   2.32842072E-02   1.70901155E+03   1.50648132E+03   0.00000000E+00   8.70127119E-04   0.00000000E+00   3.30000000E+10
   2.60000000E+00   1.50000000E-01   5.00000000E-01  -4.51945092E+03   7.66526175E+03   5.95627600E+03   2.24415270E-02   1.70901168E+03   1.50648132E+03   0.00000000E+00   8.70144164E-04   0.00000000E+00   3.30000000E+10
   2.70000000E+00   1.50000000E-01   5.00000000E-01  -4.51945091E+03   7.66529030E+03   5.95630308E+03   2.15416513E-02   1.70901224E+03   1.50648132E+03   0.00000000E+00   8.70207471E-04   0.00000000E+00   3.30000000E+10
   2.80000000E+00   1.50000000E-01   5.00000000E-01  -4.51945091E+03   7.66530069E+03   5.95631177E+03   1.98620136E-02   1.70901225E+03   1.50648132E+03   0.00000000E+00   8.70216569E-04   0.00000000E+00   3.30000000E+10
   2.90000000E+00   1.50000000E-01   5.00000000E-01  -4.51945091E+03   7.66529904E+03   5.95630731E+03   1.68966309E-02   1.70901211E+03   1.50648132E+03   0.00000000E+00   8.70207771E-04   0.00000000E+00   3.30000000E+10
   2.97500000E+00   1.50000000E-01   5.00000000E-01  -4.51945091E+03   7.66529897E+03   5.95630237E+03   1.19935898E-02   1.70901208E+03   1.50648132E+03   0.00000000E+00   8.70211008E-04   0.00000000E+00   3.30000000E+10
   2.50000000E-02   2.00000000E-01   5.00000000E-01  -1.77453658E+04   0.00000000E+00   0.00000000E+00   6.15775038E+01   3.42162926E+02   5.71780207E+03   3.07887519E+01   8.55407315E+01   0.00000000E+00   3.30000000E+10
   1.00000000E-01   2.00000000E-01   5.00000000E-01  -1.78018690E+04   0.00000000E+00   3.00982877E+03   3.00982877E+03   2.48446577E+01   5.91739323E+03   0.00000000E+00   6.21116444E+00   0.00000000E+00   3.30000000E+10
   2.00000000E-01   2.00000000E-01   5.00000000E-01  -1.86137039E+04   0.00000000E+00   2.38159243E+03   2.38159243E+03   1.61436810E+01   6.19380550E+03   0.00000000E+00   4.03592024E+00   0.00000000E+00   3.30000000E+10
   3.00000000E-01   2.00000000E-01   5.00000000E-01  -1.44702306E+04   0.00000000E+00   3.84722893E+03   3.84722893E+03   8.41105818E+00   4.81780281E+03   0.00000000E+00   2.10276455E+00   0.00000000E+00   3.30000000E+10
   4.00000000E-01   2.00000000E-01   5.00000000E-01  -1.21151322E+04   7.86059081E+02   5.26703402E+03   5.26703402E+03   7.89563565E+02   4.03604107E+03   0.00000000E+00   8.76121079E-01   0.00000000E+00   3.30000000E+10
   5.00000000E-01   2.00000000E-01   5.00000000E-01  -6.04578714E+03   3.92266214E+03   5.94986830E+03   5.94986830E+03   3.92363914E+03   2.01461105E+03   0.00000000E+00   2.44250221E-01   0.00000000E+00   3.30000000E+10
   6.00000000E-01   2.00000000E-01   5.00000000E-01  -4.52241104E+03   4.84968367E+03   6.79096662E+03   6.08949522E+03   4.14841967E+03   1.50733208E+03   0.00000000E+00   5.18497549E-02   0.00000000E+00   3.30000000E+10
   7.00000000E-01   2.00000000E-01   5.00000000E-01  -4.51947001E+03   7.06153909E+03   6.73178118E+03   1.44598005E+03   1.77575049E+03   1.50648166E+03   0.00000000E+00   3.12964350E-03   0.00000000E+00   3.30000000E+10
   8.00000000E-01   2.00000000E-01   5.00000000E-01  -4.51945590E+03   7.48721232E+03   6.21977968E+03   4.48709173E+02   1.71614773E+03   1.50648136E+03   0.00000000E+00   1.47757790E-03   0.00000000E+00   3.30000000E+10